
.Version 8.4.1 of ABINIT 
.(MPI version, prepared for a x86_64_linux_intel0.0 computer) 

.Copyright (C) 1998-2017 ABINIT group . 
 ABINIT comes with ABSOLUTELY NO WARRANTY.
 It is free software, and you are welcome to redistribute it
 under certain conditions (GNU General Public License,
 see ~abinit/COPYING or http://www.gnu.org/copyleft/gpl.txt).

 ABINIT is a project of the Universite Catholique de Louvain,
 Corning Inc. and other collaborators, see ~abinit/doc/developers/contributors.txt .
 Please read ~abinit/doc/users/acknowledgments.html for suggested
 acknowledgments of the ABINIT effort.
 For more information, see http://www.abinit.org .

.Starting date : Wed 30 Aug 2017.
- ( at 16h00 )
  
- input  file    -> abinit.in
- output file    -> abinit.out
- root for input  files -> abinit-i
- root for output files -> abinit-o
 
 
 Symmetries : space group P2_1/c (# 14); Bravais mP (primitive monocl.)
================================================================================
 Values of the parameters that define the memory need of the present run
     intxc =       0    ionmov =       0      iscf =       5    lmnmax =       8
     lnmax =       8     mgfft =      45  mpssoang =       3    mqgrid =    3001
     natom =      16  nloc_mem =       1    nspden =       1   nspinor =       1
    nsppol =       1      nsym =       4    n1xccc =       0    ntypat =       2
    occopt =       1   xclevel =       1
-    mband =          66        mffmem =           1         mkmem =           1
       mpw =        1050          nfft =       40500          nkpt =           1
================================================================================
P This job should need less than                      12.082 Mbytes of memory.
  Rough estimation (10% accuracy) of disk space for files :
_ WF disk file :      1.059 Mbytes ; DEN or POT disk file :      0.311 Mbytes.
================================================================================
 
--------------------------------------------------------------------------------
------------- Echo of variables that govern the present computation ------------
--------------------------------------------------------------------------------
-
- outvars: echo of selected default values                                      
-   iomode0 =  0 , fftalg0 =112 , wfoptalg0 =  0
-
- outvars: echo of global parameters not present in the input file              
-  max_nthreads =    0
-
 -outvars: echo values of preprocessed input variables --------
            acell      9.9452506500E+00  9.7326564600E+00  1.4395744650E+01 Bohr
              amu      1.83850000E+02  1.59994000E+01
             ecut      1.00000000E+01 Hartree
-          fftalg         112
             iscf           5
           istwfk        9
              kpt      5.00000000E-01  5.00000000E-01  5.00000000E-01
         kptrlatt        1    0    0      0    1    0      0    0    1
          kptrlen      9.73265646E+00
P           mkmem           1
            natom          16
            nband          66
            ngfft          30      30      45
             nkpt           1
            nstep           1
             nsym           4
           ntypat           2
              occ      2.000000  2.000000  2.000000  2.000000  2.000000  2.000000
                       2.000000  2.000000  2.000000  2.000000  2.000000  2.000000
                       2.000000  2.000000  2.000000  2.000000  2.000000  2.000000
                       2.000000  2.000000  2.000000  2.000000  2.000000  2.000000
                       2.000000  2.000000  2.000000  2.000000  2.000000  2.000000
                       2.000000  2.000000  2.000000  2.000000  2.000000  2.000000
                       2.000000  2.000000  2.000000  2.000000  2.000000  2.000000
                       2.000000  2.000000  2.000000  2.000000  2.000000  2.000000
                       2.000000  2.000000  2.000000  2.000000  2.000000  2.000000
                       2.000000  2.000000  2.000000  2.000000  2.000000  2.000000
                       2.000000  2.000000  2.000000  2.000000  0.000000  0.000000
           prtden           0
           prteig           0
            prtwf           0
            rprim      1.0000000000E+00  0.0000000000E+00 -3.1166530000E-02
                       0.0000000000E+00  1.0000000000E+00  0.0000000000E+00
                       0.0000000000E+00  0.0000000000E+00  9.9951421000E-01
           shiftk      5.00000000E-01  5.00000000E-01  5.00000000E-01
          spgroup          14
           symrel      1  0  0   0  1  0   0  0  1      -1  0  0   0 -1  0   0  0 -1
                      -1  0  0   0  1  0   0  0 -1       1  0  0   0 -1  0   0  0  1
            tnons      0.0000000  0.0000000  0.0000000    -0.0000000 -0.0000000  0.0000000
                      -0.0000000  0.5000000  0.5000000     0.0000000  0.5000000  0.5000000
           toldfe      1.00000000E+05 Hartree
            typat      1  1  1  1  2  2  2  2  2  2  2  2  2  2  2  2
           xangst      1.3431191823E+00  3.7734187816E+00  2.1234656241E+00
                       3.9196807954E+00  1.1982687928E+00  1.5196107975E+00
                       3.9196807954E+00  1.3768811960E+00  5.3267104324E+00
                       1.3431191823E+00  3.9520311849E+00  5.9305652590E+00
                       3.9384689913E+00  1.6834785537E+00  7.4392174509E+00
                       1.3243309864E+00  4.2586285425E+00  3.8180582405E+00
                       1.3243309864E+00  3.4668214240E+00  1.0958605574E-02
                       3.9384689913E+00  8.9167143513E-01  3.6321178160E+00
                       1.9546039117E-01  2.0137672913E-01  6.0038718035E+00
                       5.0673395865E+00  2.7765267180E+00  5.2534038878E+00
                       5.0673395865E+00  4.9489232485E+00  1.4463042529E+00
                       1.9546039117E-01  2.3737732597E+00  2.1967721686E+00
                       2.8731730198E+00  4.9391891816E+00  5.9195030886E+00
                       2.3896269579E+00  2.3640391927E+00  5.3377726027E+00
                       2.3896269579E+00  2.1111079608E-01  1.5306729678E+00
                       2.8731730198E+00  2.7862607849E+00  2.1124034537E+00
            xcart      2.5381274184E+00  7.1307280820E+00  4.0127684821E+00
                       7.4071232316E+00  2.2643998520E+00  2.8716482358E+00
                       7.4071232316E+00  2.6019283780E+00  1.0066023906E+01
                       2.5381274184E+00  7.4682566080E+00  1.1207144153E+01
                       7.4426277764E+00  3.1813134171E+00  1.4058083625E+01
                       2.5026228736E+00  8.0476416471E+00  7.2150844339E+00
                       2.5026228736E+00  6.5513430429E+00  2.0708763333E-02
                       7.4426277764E+00  1.6850148129E+00  6.8637079545E+00
                       3.6936660914E-01  3.8054686759E-01  1.1345673446E+01
                       9.5758840409E+00  5.2468750976E+00  9.9274946134E+00
                       9.5758840409E+00  9.3521095924E+00  2.7331189428E+00
                       3.6936660914E-01  4.4857813624E+00  4.1512977750E+00
                       5.4295101399E+00  9.3337148717E+00  1.1186239680E+01
                       4.5157405101E+00  4.4673866417E+00  1.0086928379E+01
                       4.5157405101E+00  3.9894158830E-01  2.8925527082E+00
                       5.4295101399E+00  5.2652698183E+00  3.9918640097E+00
             xred      2.5521000000E-01  7.3266000000E-01  2.8438000000E-01
                       7.4479000000E-01  2.3266000000E-01  2.1562000000E-01
                       7.4479000000E-01  2.6734000000E-01  7.1562000000E-01
                       2.5521000000E-01  7.6734000000E-01  7.8438000000E-01
                       7.4836000000E-01  3.2687000000E-01  9.9314000000E-01
                       2.5164000000E-01  8.2687000000E-01  5.0686000000E-01
                       2.5164000000E-01  6.7313000000E-01  6.8600000000E-03
                       7.4836000000E-01  1.7313000000E-01  4.9314000000E-01
                       3.7140000000E-02  3.9100000000E-02  7.8931000000E-01
                       9.6286000000E-01  5.3910000000E-01  7.1069000000E-01
                       9.6286000000E-01  9.6090000000E-01  2.1069000000E-01
                       3.7140000000E-02  4.6090000000E-01  2.8931000000E-01
                       5.4594000000E-01  9.5901000000E-01  7.8919000000E-01
                       4.5406000000E-01  4.5901000000E-01  7.1081000000E-01
                       4.5406000000E-01  4.0990000000E-02  2.1081000000E-01
                       5.4594000000E-01  5.4099000000E-01  2.8919000000E-01
            znucl       74.00000    8.00000
 
================================================================================
 
 chkinp: Checking input parameters for consistency.
 
================================================================================
== DATASET  1 ==================================================================
-   nproc =    1
 
 Exchange-correlation functional for the present dataset will be:
  LDA: new Teter (4/93) with spin-polarized option - ixc=1
 Citation for XC functional:
  S. Goedecker, M. Teter, J. Huetter, PRB 54, 1703 (1996)
 
 Real(R)+Recip(G) space primitive vectors, cartesian coordinates (Bohr,Bohr^-1):
 R(1)=  9.9452507  0.0000000 -0.3099590  G(1)=  0.1005505  0.0000000  0.0000000
 R(2)=  0.0000000  9.7326565  0.0000000  G(2)=  0.0000000  0.1027469  0.0000000
 R(3)=  0.0000000  0.0000000 14.3887513  G(3)=  0.0021660  0.0000000  0.0694987
 Unit cell volume ucvol=  1.3927406E+03 bohr^3
 Angles (23,13,12)=  9.00000000E+01  9.17851328E+01  9.00000000E+01 degrees
 
 getcut: wavevector=  0.0000  0.0000  0.0000  ngfft=  30  30  45
         ecut(hartree)=     10.000   => boxcut(ratio)=   2.11825
 
--- Pseudopotential description ------------------------------------------------
- pspini: atom type   1  psp file is W.psp
- pspatm: opening atomic psp file    W.psp
- Goedecker pseudopotential for W
- 74.00000  14.00000     70301                znucl, zion, pspdat
   10    1    2    2      2001   0.00000      pspcod,pspxc,lmax,lloc,mmax,r2well
 rloc=   0.5400000
 cc(1:2)=   4.8002509   0.9015443
 for angular momentum l =  0 r(l) =   0.4185696
   h11, h12, h13 =   2.6922043   2.3325575   0.2972385
        h22, h23 =              -6.0226375  -0.7674666
             h33 =                           1.2183155
 for angular momentum l =  1 r(l) =   0.4495549
   h11, h12, h13 =  -0.7020843   1.0360241   0.0000000
        h22, h23 =              -2.4516804   0.0000000
             h33 =                           0.0000000
   k11, k12, k13 =   0.7154797   0.1628354  -0.0229192
        k22, k23 =              -0.3853390   0.0542367
             k33 =                          -0.0770926
 for angular momentum l =  2 r(l) =   0.3996017
   h11, h12, h13 =   1.1774364   2.4489167   0.0000000
        h22, h23 =              -5.5536211   0.0000000
             h33 =                           0.0000000
   k11, k12, k13 =   0.2058600   0.0441160   0.0000000
        k22, k23 =              -0.1000456   0.0000000
             k33 =                           0.0000000
-  Local part computed in reciprocal space.
 
 pspatm : COMMENT -
  the projectors are not normalized,
  so that the KB energies are not consistent with 
  definition in PRB44, 8503 (1991). 
  However, this does not influence the results obtained hereafter.
 pspatm: epsatm=   44.26256226
         --- l  ekb(1:nproj) -->
             0   -1.739662    0.337294    0.853300
             1   -0.381801   -0.028760    0.000000
             2   -0.146504    0.045544
 pspatm: atomic psp has been read  and splines computed
 
- pspini: atom type   2  psp file is O.psp
- pspatm: opening atomic psp file    O.psp
- Goedecker pseudopotential for O
-  8.00000   6.00000     70301                znucl, zion, pspdat
   10    1    1    2      2001   0.00000      pspcod,pspxc,lmax,lloc,mmax,r2well
 rloc=   0.2476209
 cc(1:2)= -16.5803180   2.3957009
 for angular momentum l =  0 r(l) =   0.2217861
   h11, h12, h13 =  18.2669172   0.0000000   0.0000000
        h22, h23 =               0.0000000   0.0000000
             h33 =                           0.0000000
 for angular momentum l =  1 r(l) =   0.2568289
   h11, h12, h13 =   0.0000000   0.0000000   0.0000000
        h22, h23 =               0.0000000   0.0000000
             h33 =                           0.0000000
   k11, k12, k13 =   0.0044758   0.0000000   0.0000000
        k22, k23 =               0.0000000   0.0000000
             k33 =                           0.0000000
-  Local part computed in reciprocal space.
 
 pspatm : COMMENT -
  the projectors are not normalized,
  so that the KB energies are not consistent with 
  definition in PRB44, 8503 (1991). 
  However, this does not influence the results obtained hereafter.
 pspatm: epsatm=    0.06537593
         --- l  ekb(1:nproj) -->
             0    0.706437
             1    0.000000
 pspatm: atomic psp has been read  and splines computed
 
   2.27628493E+04                                ecore*ucvol(ha*bohr**3)
--------------------------------------------------------------------------------
 
_setup2: Arith. and geom. avg. npw (full set) are    2100.000    2100.000
 
================================================================================
 
     iter   Etot(hartree)      deltaE(h)  residm     vres2
 ETOT  1  -414.93136221265    -4.149E+02 5.770E-02 1.927E+04
 
 Cartesian components of stress tensor (hartree/bohr^3)
  sigma(1 1)= -2.21308202E-02  sigma(3 2)=  0.00000000E+00
  sigma(2 2)= -2.20859266E-02  sigma(3 1)= -2.95507767E-05
  sigma(3 3)= -2.26828704E-02  sigma(2 1)=  0.00000000E+00
 
 Integrated electronic density in atomic spheres:
 ------------------------------------------------
 Atom  Sphere_radius  Integrated_density
    1        2.00000         15.59914512
    2        2.00000         15.59683991
    3        2.00000         15.59914512
    4        2.00000         15.59683991
    5        2.00000          3.95360585
    6        2.00000          3.99872798
    7        2.00000          3.95360585
    8        2.00000          3.99872798
    9        2.00000          4.20705563
   10        2.00000          4.19547353
   11        2.00000          4.20705563
   12        2.00000          4.19547353
   13        2.00000          4.32288829
   14        2.00000          4.32132321
   15        2.00000          4.32288829
   16        2.00000          4.32132321
================================================================================
 
 ----iterations are completed or convergence reached----
 
 Mean square residual over all n,k,spin=   1.8314E-02; max=  5.7696E-02
 reduced coordinates (array xred) for   16 atoms
       0.255210000000      0.732660000000      0.284380000000
       0.744790000000      0.232660000000      0.215620000000
       0.744790000000      0.267340000000      0.715620000000
       0.255210000000      0.767340000000      0.784380000000
       0.748360000000      0.326870000000      0.993140000000
       0.251640000000      0.826870000000      0.506860000000
       0.251640000000      0.673130000000      0.006860000000
       0.748360000000      0.173130000000      0.493140000000
       0.037140000000      0.039100000000      0.789310000000
       0.962860000000      0.539100000000      0.710690000000
       0.962860000000      0.960900000000      0.210690000000
       0.037140000000      0.460900000000      0.289310000000
       0.545940000000      0.959010000000      0.789190000000
       0.454060000000      0.459010000000      0.710810000000
       0.454060000000      0.040990000000      0.210810000000
       0.545940000000      0.540990000000      0.289190000000
 rms dE/dt=  3.8049E+00; max dE/dt=  1.0193E+01; dE/dt below (all hartree)
    1       0.851110440307     -2.990571469058     10.193195380302
    2      -0.851110440307     -2.990571469058    -10.193195380302
    3      -0.851110440307      2.990571469058    -10.193195380302
    4       0.851110440307      2.990571469058     10.193195380302
    5       0.109265648905      0.160514317252      6.579685357492
    6      -0.109265648905      0.160514317252     -6.579685357492
    7      -0.109265648905     -0.160514317252     -6.579685357492
    8       0.109265648905     -0.160514317252      6.579685357492
    9       2.281904796712     -1.778085747677      0.368373184397
   10      -2.281904796712     -1.778085747677     -0.368373184397
   11      -2.281904796712      1.778085747677     -0.368373184397
   12       2.281904796712      1.778085747677      0.368373184397
   13      -1.689865928778     -1.998931352428      1.213999695725
   14       1.689865928778     -1.998931352428     -1.213999695725
   15       1.689865928778      1.998931352428     -1.213999695725
   16      -1.689865928778      1.998931352428      1.213999695725
 
 cartesian coordinates (angstrom) at end:
    1      1.34311918230751     3.77341878163840     2.12346562406679
    2      3.91968079538737     1.19826879280429     1.51961079746201
    3      3.91968079538737     1.37688119602982     5.32671043237965
    4      1.34311918230751     3.95203118486394     5.93056525898442
    5      3.93846899130774     1.68347855370041     7.43921745087253
    6      1.32433098638714     4.25862854253453     3.81805824049154
    7      1.32433098638714     3.46682142396782     0.01095860557391
    8      3.93846899130774     0.89167143513370     3.63211781595490
    9      0.19546039117159     0.20137672912683     6.00387180352841
   10      5.06733958652329     2.77652671796094     5.25340388783565
   11      5.06733958652329     4.94892324854140     1.44630425291802
   12      0.19546039117159     2.37377325970729     2.19677216861078
   13      2.87317301982274     4.93918918158361     5.91950308864379
   14      2.38962695787214     2.36403919274949     5.33777260272027
   15      2.38962695787214     0.21111079608462     1.53067296780264
   16      2.87317301982274     2.78626078491874     2.11240345372616
 
 cartesian forces (hartree/bohr) at end:
    1     -0.10765839827701     0.30727186162884    -0.70841417289012
    2      0.10765839827701     0.30727186162884     0.70841417289012
    3      0.10765839827701    -0.30727186162884     0.70841417289012
    4     -0.10765839827701    -0.30727186162884    -0.70841417289012
    5     -0.02523854110157    -0.01649234388491    -0.45727980152447
    6      0.02523854110157    -0.01649234388491     0.45727980152447
    7      0.02523854110157     0.01649234388491     0.45727980152447
    8     -0.02523854110157     0.01649234388491    -0.45727980152447
    9     -0.23024459433930     0.18269274734857    -0.02560146990253
   10      0.23024459433930     0.18269274734857     0.02560146990253
   11      0.23024459433930    -0.18269274734857     0.02560146990253
   12     -0.23024459433930    -0.18269274734857    -0.02560146990253
   13      0.16728731166273     0.20538394226117    -0.08437144175590
   14     -0.16728731166273     0.20538394226117     0.08437144175590
   15     -0.16728731166273    -0.20538394226117     0.08437144175590
   16      0.16728731166273    -0.20538394226117    -0.08437144175590
 frms,max,avg= 2.8609462E-01 7.0841417E-01   0.000E+00  0.000E+00  0.000E+00 h/b
 
 cartesian forces (eV/Angstrom) at end:
    1     -5.53601695937391    15.80055308587068   -36.42811836462326
    2      5.53601695937391    15.80055308587068    36.42811836462326
    3      5.53601695937391   -15.80055308587067    36.42811836462326
    4     -5.53601695937391   -15.80055308587068   -36.42811836462326
    5     -1.29781785540427    -0.84807034943752   -23.51427085051927
    6      1.29781785540427    -0.84807034943752    23.51427085051927
    7      1.29781785540427     0.84807034943752    23.51427085051927
    8     -1.29781785540427     0.84807034943752   -23.51427085051927
    9    -11.83965207978358     9.39443799891924    -1.31648040314177
   10     11.83965207978358     9.39443799891924     1.31648040314177
   11     11.83965207978358    -9.39443799891924     1.31648040314177
   12    -11.83965207978358    -9.39443799891924    -1.31648040314177
   13      8.60225871157826    10.56126605762228    -4.33855360959097
   14     -8.60225871157826    10.56126605762228     4.33855360959097
   15     -8.60225871157826   -10.56126605762228     4.33855360959097
   16      8.60225871157826   -10.56126605762228    -4.33855360959097
 frms,max,avg= 1.4711576E+01 3.6428118E+01   0.000E+00  0.000E+00  0.000E+00 e/A
 length scales=  9.945250650000  9.732656460000 14.395744650000 bohr
              =  5.262799977695  5.150299977668  7.617899969461 angstroms
 Fermi (or HOMO) energy (hartree) =   0.33318   Average Vxc (hartree)=  -0.40978
 Eigenvalues (hartree) for nkpt=   1  k points:
 kpt#   1, nband= 66, wtk=  1.00000, kpt=  0.5000  0.5000  0.5000 (reduced coord)
  -3.03236   -3.03209   -3.03015   -3.02986   -1.87595   -1.87529   -1.87461   -1.87425
  -1.87398   -1.87380   -1.87211   -1.87175   -1.87142   -1.87108   -1.87017   -1.86873
  -0.40325   -0.40165   -0.39867   -0.39790   -0.37393   -0.37305   -0.37116   -0.36613
  -0.33125   -0.33052   -0.32927   -0.32767   -0.14533   -0.14399   -0.14189   -0.13743
  -0.11591   -0.11527   -0.11304   -0.11116   -0.09945   -0.09849   -0.09629   -0.09372
  -0.08199   -0.08064   -0.08025   -0.07549   -0.01248   -0.01148   -0.00927    0.00340
   0.20410    0.21030    0.21066    0.21459    0.22593    0.22895    0.23558    0.24452
   0.24742    0.25500    0.26550    0.28735    0.29623    0.31076    0.31480    0.33318
   0.35382    0.35971
 
--------------------------------------------------------------------------------
 Components of total free energy (in Hartree) :
 
    Kinetic energy  =  1.97767947743119E+02
    Hartree energy  =  1.85268730080375E+02
    XC energy       = -7.04183551525688E+01
    Ewald energy    = -3.05996744715787E+02
    PspCore energy  =  1.63439260510391E+01
    Loc. psp. energy= -4.13620900078288E+02
    NL   psp  energy= -2.42759661405384E+01
    >>>>>>>>> Etotal= -4.14931362212649E+02
 
 Other information on the energy :
    Total energy(eV)= -1.12908565727211E+04 ; Band energy (Ha)=  -7.3354737886E+01
--------------------------------------------------------------------------------
 
 Cartesian components of stress tensor (hartree/bohr^3)
  sigma(1 1)= -2.21308202E-02  sigma(3 2)=  0.00000000E+00
  sigma(2 2)= -2.20859266E-02  sigma(3 1)= -2.95507767E-05
  sigma(3 3)= -2.26828704E-02  sigma(2 1)=  0.00000000E+00
 
-Cartesian components of stress tensor (GPa)         [Pressure=  6.5608E+02 GPa]
- sigma(1 1)= -6.51111100E+02  sigma(3 2)=  0.00000000E+00
- sigma(2 2)= -6.49790286E+02  sigma(3 1)= -8.69413720E-01
- sigma(3 3)= -6.67352975E+02  sigma(2 1)=  0.00000000E+00
 
== END DATASET(S) ==============================================================
================================================================================
  
 -outvars: echo values of variables after computation  --------
            acell      9.9452506500E+00  9.7326564600E+00  1.4395744650E+01 Bohr
              amu      1.83850000E+02  1.59994000E+01
             ecut      1.00000000E+01 Hartree
           etotal     -4.1493136221E+02
            fcart     -1.0765839828E-01  3.0727186163E-01 -7.0841417289E-01
                       1.0765839828E-01  3.0727186163E-01  7.0841417289E-01
                       1.0765839828E-01 -3.0727186163E-01  7.0841417289E-01
                      -1.0765839828E-01 -3.0727186163E-01 -7.0841417289E-01
                      -2.5238541102E-02 -1.6492343885E-02 -4.5727980152E-01
                       2.5238541102E-02 -1.6492343885E-02  4.5727980152E-01
                       2.5238541102E-02  1.6492343885E-02  4.5727980152E-01
                      -2.5238541102E-02  1.6492343885E-02 -4.5727980152E-01
                      -2.3024459434E-01  1.8269274735E-01 -2.5601469903E-02
                       2.3024459434E-01  1.8269274735E-01  2.5601469903E-02
                       2.3024459434E-01 -1.8269274735E-01  2.5601469903E-02
                      -2.3024459434E-01 -1.8269274735E-01 -2.5601469903E-02
                       1.6728731166E-01  2.0538394226E-01 -8.4371441756E-02
                      -1.6728731166E-01  2.0538394226E-01  8.4371441756E-02
                      -1.6728731166E-01 -2.0538394226E-01  8.4371441756E-02
                       1.6728731166E-01 -2.0538394226E-01 -8.4371441756E-02
-          fftalg         112
             iscf           5
           istwfk        9
              kpt      5.00000000E-01  5.00000000E-01  5.00000000E-01
         kptrlatt        1    0    0      0    1    0      0    0    1
          kptrlen      9.73265646E+00
P           mkmem           1
            natom          16
            nband          66
            ngfft          30      30      45
             nkpt           1
            nstep           1
             nsym           4
           ntypat           2
              occ      2.000000  2.000000  2.000000  2.000000  2.000000  2.000000
                       2.000000  2.000000  2.000000  2.000000  2.000000  2.000000
                       2.000000  2.000000  2.000000  2.000000  2.000000  2.000000
                       2.000000  2.000000  2.000000  2.000000  2.000000  2.000000
                       2.000000  2.000000  2.000000  2.000000  2.000000  2.000000
                       2.000000  2.000000  2.000000  2.000000  2.000000  2.000000
                       2.000000  2.000000  2.000000  2.000000  2.000000  2.000000
                       2.000000  2.000000  2.000000  2.000000  2.000000  2.000000
                       2.000000  2.000000  2.000000  2.000000  2.000000  2.000000
                       2.000000  2.000000  2.000000  2.000000  2.000000  2.000000
                       2.000000  2.000000  2.000000  2.000000  0.000000  0.000000
           prtden           0
           prteig           0
            prtwf           0
            rprim      1.0000000000E+00  0.0000000000E+00 -3.1166530000E-02
                       0.0000000000E+00  1.0000000000E+00  0.0000000000E+00
                       0.0000000000E+00  0.0000000000E+00  9.9951421000E-01
           shiftk      5.00000000E-01  5.00000000E-01  5.00000000E-01
          spgroup          14
           strten     -2.2130820178E-02 -2.2085926639E-02 -2.2682870413E-02
                       0.0000000000E+00 -2.9550776670E-05  0.0000000000E+00
           symrel      1  0  0   0  1  0   0  0  1      -1  0  0   0 -1  0   0  0 -1
                      -1  0  0   0  1  0   0  0 -1       1  0  0   0 -1  0   0  0  1
            tnons      0.0000000  0.0000000  0.0000000    -0.0000000 -0.0000000  0.0000000
                      -0.0000000  0.5000000  0.5000000     0.0000000  0.5000000  0.5000000
           toldfe      1.00000000E+05 Hartree
            typat      1  1  1  1  2  2  2  2  2  2  2  2  2  2  2  2
           xangst      1.3431191823E+00  3.7734187816E+00  2.1234656241E+00
                       3.9196807954E+00  1.1982687928E+00  1.5196107975E+00
                       3.9196807954E+00  1.3768811960E+00  5.3267104324E+00
                       1.3431191823E+00  3.9520311849E+00  5.9305652590E+00
                       3.9384689913E+00  1.6834785537E+00  7.4392174509E+00
                       1.3243309864E+00  4.2586285425E+00  3.8180582405E+00
                       1.3243309864E+00  3.4668214240E+00  1.0958605574E-02
                       3.9384689913E+00  8.9167143513E-01  3.6321178160E+00
                       1.9546039117E-01  2.0137672913E-01  6.0038718035E+00
                       5.0673395865E+00  2.7765267180E+00  5.2534038878E+00
                       5.0673395865E+00  4.9489232485E+00  1.4463042529E+00
                       1.9546039117E-01  2.3737732597E+00  2.1967721686E+00
                       2.8731730198E+00  4.9391891816E+00  5.9195030886E+00
                       2.3896269579E+00  2.3640391927E+00  5.3377726027E+00
                       2.3896269579E+00  2.1111079608E-01  1.5306729678E+00
                       2.8731730198E+00  2.7862607849E+00  2.1124034537E+00
            xcart      2.5381274184E+00  7.1307280820E+00  4.0127684821E+00
                       7.4071232316E+00  2.2643998520E+00  2.8716482358E+00
                       7.4071232316E+00  2.6019283780E+00  1.0066023906E+01
                       2.5381274184E+00  7.4682566080E+00  1.1207144153E+01
                       7.4426277764E+00  3.1813134171E+00  1.4058083625E+01
                       2.5026228736E+00  8.0476416471E+00  7.2150844339E+00
                       2.5026228736E+00  6.5513430429E+00  2.0708763333E-02
                       7.4426277764E+00  1.6850148129E+00  6.8637079545E+00
                       3.6936660914E-01  3.8054686759E-01  1.1345673446E+01
                       9.5758840409E+00  5.2468750976E+00  9.9274946134E+00
                       9.5758840409E+00  9.3521095924E+00  2.7331189428E+00
                       3.6936660914E-01  4.4857813624E+00  4.1512977750E+00
                       5.4295101399E+00  9.3337148717E+00  1.1186239680E+01
                       4.5157405101E+00  4.4673866417E+00  1.0086928379E+01
                       4.5157405101E+00  3.9894158830E-01  2.8925527082E+00
                       5.4295101399E+00  5.2652698183E+00  3.9918640097E+00
             xred      2.5521000000E-01  7.3266000000E-01  2.8438000000E-01
                       7.4479000000E-01  2.3266000000E-01  2.1562000000E-01
                       7.4479000000E-01  2.6734000000E-01  7.1562000000E-01
                       2.5521000000E-01  7.6734000000E-01  7.8438000000E-01
                       7.4836000000E-01  3.2687000000E-01  9.9314000000E-01
                       2.5164000000E-01  8.2687000000E-01  5.0686000000E-01
                       2.5164000000E-01  6.7313000000E-01  6.8600000000E-03
                       7.4836000000E-01  1.7313000000E-01  4.9314000000E-01
                       3.7140000000E-02  3.9100000000E-02  7.8931000000E-01
                       9.6286000000E-01  5.3910000000E-01  7.1069000000E-01
                       9.6286000000E-01  9.6090000000E-01  2.1069000000E-01
                       3.7140000000E-02  4.6090000000E-01  2.8931000000E-01
                       5.4594000000E-01  9.5901000000E-01  7.8919000000E-01
                       4.5406000000E-01  4.5901000000E-01  7.1081000000E-01
                       4.5406000000E-01  4.0990000000E-02  2.1081000000E-01
                       5.4594000000E-01  5.4099000000E-01  2.8919000000E-01
            znucl       74.00000    8.00000
 
================================================================================


- Timing analysis has been suppressed with timopt=0



================================================================================

 Suggested references for the acknowledgment of ABINIT usage.

 The users of ABINIT have little formal obligations with respect to the ABINIT group
 (those specified in the GNU General Public License, http://www.gnu.org/copyleft/gpl.txt).
 However, it is common practice in the scientific literature,
 to acknowledge the efforts of people that have made the research possible.
 In this spirit, please find below suggested citations of work written by ABINIT developers,
 corresponding to implementations inside of ABINIT that you have used in the present run.
 Note also that it will be of great value to readers of publications presenting these results,
 to read papers enabling them to understand the theoretical formalism and details
 of the ABINIT implementation.
 For information on why they are suggested, see also http://www.abinit.org/about/?text=acknowledgments.
-
- [1] Recent developments in the ABINIT software package.
- Computer Phys. Comm. 205, 106 (2016).
- X.Gonze, F.Jollet, F.Abreu Araujo, D.Adams, B.Amadon, T.Applencourt,
- C.Audouze, J.-M.Beuken, J.Bieder, A.Bokhanchuk, E.Bousquet, F.Bruneval
- D.Caliste, M.Cote, F.Dahm, F.Da Pieve, M.Delaveau, M.Di Gennaro,
- B.Dorado, C.Espejo, G.Geneste, L.Genovese, A.Gerossier, M.Giantomassi,
- Y.Gillet, D.R.Hamann, L.He, G.Jomard, J.Laflamme Janssen, S.Le Roux,
- A.Levitt, A.Lherbier, F.Liu, I.Lukacevic, A.Martin, C.Martins,
- M.J.T.Oliveira, S.Ponce, Y.Pouillon, T.Rangel, G.-M.Rignanese,
- A.H.Romero, B.Rousseau, O.Rubel, A.A.Shukri, M.Stankovski, M.Torrent,
- M.J.Van Setten, B.Van Troeye, M.J.Verstraete, D.Waroquier, J.Wiktor,
- B.Xue, A.Zhou, J.W.Zwanziger.
- Comment : the fourth generic paper describing the ABINIT project.
- Note that a version of this paper, that is not formatted for Computer Phys. Comm. 
- is available at http://www.abinit.org/about/ABINIT16.pdf .
- The licence allows the authors to put it on the Web.
-
- [2] ABINIT : First-principles approach of materials and nanosystem properties.
- Computer Phys. Comm. 180, 2582-2615 (2009).
- X. Gonze, B. Amadon, P.-M. Anglade, J.-M. Beuken, F. Bottin, P. Boulanger, F. Bruneval,
- D. Caliste, R. Caracas, M. Cote, T. Deutsch, L. Genovese, Ph. Ghosez, M. Giantomassi
- S. Goedecker, D.R. Hamann, P. Hermet, F. Jollet, G. Jomard, S. Leroux, M. Mancini, S. Mazevet,
- M.J.T. Oliveira, G. Onida, Y. Pouillon, T. Rangel, G.-M. Rignanese, D. Sangalli, R. Shaltaf,
- M. Torrent, M.J. Verstraete, G. Zerah, J.W. Zwanziger
- Comment : the third generic paper describing the ABINIT project.
- Note that a version of this paper, that is not formatted for Computer Phys. Comm. 
- is available at http://www.abinit.org/about/ABINIT_CPC_v10.pdf .
- The licence allows the authors to put it on the Web.
-
- [3] A brief introduction to the ABINIT software package.
- Z. Kristallogr. 220, 558-562 (2005).
- X. Gonze, G.-M. Rignanese, M. Verstraete, J.-M. Beuken, Y. Pouillon, R. Caracas, F. Jollet,
- M. Torrent, G. Zerah, M. Mikami, Ph. Ghosez, M. Veithen, J.-Y. Raty, V. Olevano, F. Bruneval,
- L. Reining, R. Godby, G. Onida, D.R. Hamann, and D.C. Allan.
- Comment : the second generic paper describing the ABINIT project. Note that this paper
- should be cited especially if you are using the GW part of ABINIT, as several authors
- of this part are not in the list of authors of the first or third paper.
- The .pdf of the latter paper is available at http://www.abinit.org/about/zfk_0505-06_558-562.pdf.
- Note that it should not redistributed (Copyright by Oldenburg Wissenshaftverlag,
- the licence allows the authors to put it on the Web).
-
- And optionally:
-
- [4] First-principles computation of material properties : the ABINIT software project. 
- X. Gonze, J.-M. Beuken, R. Caracas, F. Detraux, M. Fuchs, G.-M. Rignanese, L. Sindic,
- M. Verstraete, G. Zerah, F. Jollet, M. Torrent, A. Roy, M. Mikami, Ph. Ghosez, J.-Y. Raty, D.C. Allan.
- Computational Materials Science 25, 478-492 (2002). http://dx.doi.org/10.1016/S0927-0256(02)00325-7
- Comment : the original paper describing the ABINIT project.
-
- [5] Towards a potential-based conjugate gradient algorithm for order-N self-consistent
- total energy calculations.
- X. Gonze, Phys. Rev. B 54, 4383 (1996).
- Comment : The potential-based conjugate-gradient algorithm, used when iscf=5, is not published.
- However, many elements of this algorithm have been explained in the paper above.
-
- Proc.   0 individual time (sec): cpu=          1.3  wall=          1.3
 
================================================================================
 
 Calculation completed.
.Delivered   0 WARNINGs and   4 COMMENTs to log file.
+Overall time at end (sec) : cpu=          1.3  wall=          1.3
