#1.0
7.03228400   0.00000000   -0.04151100 0.00000000   6.56787400   0.00000000 -0.04151100   0.00000000   5.44549800 
10.49769000   -0.86865000   -0.07922000 0.81667000   9.50350000   0.68180000 -0.09429000   -0.73146000   7.72422000 
10.49774000   0.86872000   -0.07920000 -0.81667000   9.50350000   -0.68180000 -0.09383000   0.73226000   7.72657000 
10.49774000   -0.86872000   -0.07920000 0.81660000   9.50701000   0.68186000 -0.09383000   -0.73226000   7.72657000 
10.49769000   0.86865000   -0.07922000 -0.81660000   9.50701000   -0.68186000 -0.09429000   0.73146000   7.72422000 
-4.64429000   3.17903000   -0.65264000 2.98343000   -4.17169000   0.54440000 -0.23487000   0.23384000   -1.04685000 
-4.64443000   -3.17920000   -0.65269000 -2.98343000   -4.17169000   -0.54440000 -0.23435000   -0.23349000   -1.04693000 
-4.64443000   3.17920000   -0.65269000 2.98462000   -4.17302000   0.54501000 -0.23435000   0.23349000   -1.04693000 
-4.64429000   -3.17903000   -0.65264000 -2.98462000   -4.17302000   -0.54501000 -0.23487000   -0.23384000   -1.04685000 
-4.68776000   3.04252000   0.64957000 2.97291000   -4.10980000   -0.56794000 0.25482000   -0.24534000   -1.07705000 
-4.68766000   -3.04237000   0.64950000 -2.97291000   -4.10980000   0.56794000 0.25446000   0.24528000   -1.07716000 
-4.68766000   3.04237000   0.64950000 2.97299000   -4.11129000   -0.56857000 0.25446000   -0.24528000   -1.07716000 
-4.68776000   -3.04252000   0.64957000 -2.97299000   -4.11129000   0.56857000 0.25482000   0.24534000   -1.07705000 
-1.16901000   0.01349000   0.08263000 -0.02717000   -1.22908000   0.23529000 0.07398000   0.43607000   -5.59988000 
-1.16851000   -0.01351000   0.08261000 0.02717000   -1.22908000   -0.23529000 0.07373000   -0.43604000   -5.60130000 
-1.16851000   0.01351000   0.08261000 -0.02729000   -1.22961000   0.23510000 0.07373000   0.43604000   -5.60130000 
-1.16901000   -0.01349000   0.08263000 0.02729000   -1.22961000   -0.23510000 0.07398000   -0.43607000   -5.59988000 
