# 
0.526281086000E+01   0.322254223711E-15   0.000000000000E+00   0.000000000000E+00   0.515032881000E+01   0.000000000000E+00  -0.237522549185E+00   0.466466831160E-15   0.761427768839E+01
9.99550716 0.91855668 -0.1802706 -1.0712861 8.82046413 -1.0707279 -0.16000256 1.08747613 7.40983323
9.99550716 -0.91855668 -0.1802706 1.0712861 8.82046413 1.0707279 -0.16000256 -1.08747613 7.40983323
9.99550716 0.91855668 -0.1802706 -1.0712861 8.82046413 -1.0707279 -0.16000256 1.08747613 7.40983323
9.99550716 -0.91855668 -0.1802706 1.0712861 8.82046413 1.0707279 -0.16000256 -1.08747613 7.40983323
-1.05003485 0.04073194 0.17542763 0.00478433 -1.19980722 -0.60091134 0.19420971 -0.33799091 -5.36981786
-1.05003485 -0.04073194 0.17542763 -0.00478433 -1.19980722 0.60091134 0.19420971 0.33799091 -5.36981786
-1.05003485 0.04073194 0.17542763 0.00478433 -1.19980722 -0.60091134 0.19420971 -0.33799091 -5.36981786
-1.05003485 -0.04073194 0.17542763 -0.00478433 -1.19980722 0.60091134 0.19420971 0.33799091 -5.36981786
-4.40478805 2.76502764 -0.2922388 3.05673547 -3.88257553 0.27072855 -0.64709873 0.48266583 -0.99648569
-4.40478805 -2.76502764 -0.2922388 -3.05673547 -3.88257553 -0.27072855 -0.64709873 -0.48266583 -0.99648569
-4.40478805 2.76502764 -0.2922388 3.05673547 -3.88257553 0.27072855 -0.64709873 0.48266583 -0.99648569
-4.40478805 -2.76502764 -0.2922388 -3.05673547 -3.88257553 -0.27072855 -0.64709873 -0.48266583 -0.99648569
-4.54176226 -2.73874106 0.29926993 -2.84895227 -3.73915037 0.31258792 0.61171025 0.54818434 -1.04295348
-4.54176226 2.73874106 0.29926993 2.84895227 -3.73915037 -0.31258792 0.61171025 -0.54818434 -1.04295348
-4.54176226 -2.73874106 0.29926993 -2.84895227 -3.73915037 0.31258792 0.61171025 0.54818434 -1.04295348
-4.54176226 2.73874106 0.29926993 2.84895227 -3.73915037 -0.31258792 0.61171025 -0.54818434 -1.04295348
