  16
   1   1
    35.352338165500001    -0.577846065500000    -0.416328325000000
    -0.577846065500000    35.299310309999996    -3.614007474500000
    -0.416328325000000    -3.614007474500000    45.947100724000002
   1   2
   -27.093825581500003    -5.458820883500000     0.242856657500000
     5.458820883500000   -24.861603452499999     1.465174190000000
     0.242856657500000    -1.465174190000000     1.537127564500000
   1   3
    -0.485139703000000     0.025349238000000    -0.122745614000000
     0.025349238000000    -0.327412949500000    -0.703364137500000
    -0.122745614000000    -0.703364137500000    -1.418274055000000
   1   4
     0.615787190000000     0.011198303500000     0.351078121500000
    -0.011198303500000     1.044315801000000     2.813285569500000
     0.351078121500000    -2.813285569500000   -19.258373909499998
   1   5
    -6.120903578535315     7.742076522524026     0.865171731874270
     4.981143740317401    -7.740899590060374    -1.012537235453374
    -1.589427767016330     1.994124943669013    -3.012644467174963
   1   6
     3.248071637294833     3.715701616476316     0.083032314128114
    -0.047737356983103     1.675979488866400    -0.391858307860244
    -2.071198833812938    -1.464711433797661    -2.270298383464850
   1   7
     0.018311875931019    -0.043550840076681     0.023508276822382
    -0.028153634680072     0.027187682275572    -0.154294761254509
    -0.011883221326560     0.149576184096085     1.225000663402247
   1   8
     0.052239530430468     0.040058008249066    -0.036368840222445
    -0.059797389361806    -0.129893751328361    -0.175639000966304
     0.608618895214427     0.767308983973749     1.507926007456155
   1   9
     4.338808713027867    -1.054708298485109    -0.190262251235893
    -2.491438027368126     0.069228577661557    -0.495272163486797
     1.499145657385152    -2.089569827549735    -2.264307417569223
   1  10
    -9.371165828835077    -4.985924147107555    -1.009200062435468
    -6.619855147475302    -3.624985614692640    -0.847967908027695
     1.845922570600776     1.754845353600145    -2.968908138203090
   1  11
     0.028732338338467    -0.052082244525188     0.011085402131152
     0.045207223368845    -0.074222676336818    -0.167338644089003
    -0.653332023894614     0.710663821099846     1.514149648018559
   1  12
     0.005125893416582     0.011844171032835    -0.050336913341761
     0.064408035847296     0.025371301252174    -0.119731997116840
     0.021496644330360     0.103560836593211     1.267661482201115
   1  13
    -2.569823898908169    -0.059032112077836     0.361486399550522
    -0.073225809116452    -3.362563301939869     4.534664918839850
     0.435347860670385     5.157483477109990   -27.233693826518319
   1  14
     1.868605909968221     0.442170272403237     0.021494474869598
    -0.455132258093947     1.936191663467379     0.802758515198087
     0.014995855155547    -0.031135016132929     0.077073890143925
   1  15
     1.193958391716915     0.216572928998227     0.052460815428243
    -0.245477197102122     1.170182186490365     0.156521712727209
    -0.007434742033066    -0.018346587303219    -0.003945706761786
   1  16
    -1.082244179213061     0.027289646931409    -0.186395187426748
     0.037884208565047    -1.127104288859907    -2.090989197253597
    -0.145403768684619     1.563086716803322     5.353994317707056
   2   1
   -27.093825581500003     5.458820883500000     0.242856657500000
    -5.458820883500000   -24.861603452499999    -1.465174190000000
     0.242856657500000     1.465174190000000     1.537127564500000
   2   2
    35.352338165500001     0.577846065500000    -0.416328325000000
     0.577846065500000    35.299310309999996     3.614007474500000
    -0.416328325000000     3.614007474500000    45.947100724000002
   2   3
     0.615787190000000    -0.011198303500000     0.351078121500000
     0.011198303500000     1.044315801000000    -2.813285569500000
     0.351078121500000     2.813285569500000   -19.258373909499998
   2   4
    -0.485139703000000    -0.025349238000000    -0.122745614000000
    -0.025349238000000    -0.327412949500000     0.703364137500000
    -0.122745614000000     0.703364137500000    -1.418274055000000
   2   5
     3.248071637294833    -3.715701616476316     0.083032314128114
     0.047737356983103     1.675979488866400     0.391858307860244
    -2.071198833812938     1.464711433797661    -2.270298383464850
   2   6
    -6.120903578535315    -7.742076522524026     0.865171731874270
    -4.981143740317401    -7.740899590060374     1.012537235453374
    -1.589427767016330    -1.994124943669013    -3.012644467174963
   2   7
     0.052239530430468    -0.040058008249066    -0.036368840222445
     0.059797389361806    -0.129893751328361     0.175639000966304
     0.608618895214427    -0.767308983973749     1.507926007456155
   2   8
     0.018311875931019     0.043550840076681     0.023508276822382
     0.028153634680072     0.027187682275572     0.154294761254509
    -0.011883221326560    -0.149576184096085     1.225000663402247
   2   9
    -9.371165828835077     4.985924147107555    -1.009200062435468
     6.619855147475302    -3.624985614692640     0.847967908027695
     1.845922570600776    -1.754845353600145    -2.968908138203090
   2  10
     4.338808713027867     1.054708298485109    -0.190262251235893
     2.491438027368126     0.069228577661557     0.495272163486797
     1.499145657385152     2.089569827549735    -2.264307417569223
   2  11
     0.005125893416582    -0.011844171032835    -0.050336913341761
    -0.064408035847296     0.025371301252174     0.119731997116840
     0.021496644330360    -0.103560836593211     1.267661482201115
   2  12
     0.028732338338467     0.052082244525188     0.011085402131152
    -0.045207223368845    -0.074222676336818     0.167338644089003
    -0.653332023894614    -0.710663821099846     1.514149648018559
   2  13
     1.868605909968221    -0.442170272403237     0.021494474869598
     0.455132258093947     1.936191663467379    -0.802758515198087
     0.014995855155547     0.031135016132929     0.077073890143925
   2  14
    -2.569823898908169     0.059032112077836     0.361486399550522
     0.073225809116452    -3.362563301939869    -4.534664918839850
     0.435347860670385    -5.157483477109990   -27.233693826518319
   2  15
    -1.082244179213061    -0.027289646931409    -0.186395187426748
    -0.037884208565047    -1.127104288859907     2.090989197253597
    -0.145403768684619    -1.563086716803322     5.353994317707056
   2  16
     1.193958391716915    -0.216572928998227     0.052460815428243
     0.245477197102122     1.170182186490365    -0.156521712727209
    -0.007434742033066     0.018346587303219    -0.003945706761786
   3   1
    -0.485139703000000     0.025349238000000    -0.122745614000000
     0.025349238000000    -0.327412949500000    -0.703364137500000
    -0.122745614000000    -0.703364137500000    -1.418274055000000
   3   2
     0.615787190000000     0.011198303500000     0.351078121500000
    -0.011198303500000     1.044315801000000     2.813285569500000
     0.351078121500000    -2.813285569500000   -19.258373909499998
   3   3
    35.352338165500001    -0.577846065500000    -0.416328325000000
    -0.577846065500000    35.299310309999996    -3.614007474500000
    -0.416328325000000    -3.614007474500000    45.947100724000002
   3   4
   -27.093825581500003    -5.458820883500000     0.242856657500000
     5.458820883500000   -24.861603452499999     1.465174190000000
     0.242856657500000    -1.465174190000000     1.537127564500000
   3   5
     0.018311875931019    -0.043550840076681     0.023508276822382
    -0.028153634680072     0.027187682275572    -0.154294761254509
    -0.011883221326560     0.149576184096085     1.225000663402247
   3   6
     0.052239530430468     0.040058008249066    -0.036368840222445
    -0.059797389361806    -0.129893751328361    -0.175639000966304
     0.608618895214427     0.767308983973749     1.507926007456155
   3   7
    -6.120903578535315     7.742076522524026     0.865171731874270
     4.981143740317401    -7.740899590060374    -1.012537235453374
    -1.589427767016330     1.994124943669013    -3.012644467174963
   3   8
     3.248071637294833     3.715701616476316     0.083032314128114
    -0.047737356983103     1.675979488866400    -0.391858307860244
    -2.071198833812938    -1.464711433797661    -2.270298383464850
   3   9
     0.028732338338467    -0.052082244525188     0.011085402131152
     0.045207223368845    -0.074222676336818    -0.167338644089003
    -0.653332023894614     0.710663821099846     1.514149648018559
   3  10
     0.005125893416582     0.011844171032835    -0.050336913341761
     0.064408035847296     0.025371301252174    -0.119731997116840
     0.021496644330360     0.103560836593211     1.267661482201115
   3  11
     4.338808713027867    -1.054708298485109    -0.190262251235893
    -2.491438027368126     0.069228577661557    -0.495272163486797
     1.499145657385152    -2.089569827549735    -2.264307417569223
   3  12
    -9.371165828835077    -4.985924147107555    -1.009200062435468
    -6.619855147475302    -3.624985614692640    -0.847967908027695
     1.845922570600776     1.754845353600145    -2.968908138203090
   3  13
     1.193958391716915     0.216572928998227     0.052460815428243
    -0.245477197102122     1.170182186490365     0.156521712727209
    -0.007434742033066    -0.018346587303219    -0.003945706761786
   3  14
    -1.082244179213061     0.027289646931409    -0.186395187426748
     0.037884208565047    -1.127104288859907    -2.090989197253597
    -0.145403768684619     1.563086716803322     5.353994317707056
   3  15
    -2.569823898908169    -0.059032112077836     0.361486399550522
    -0.073225809116452    -3.362563301939869     4.534664918839850
     0.435347860670385     5.157483477109990   -27.233693826518319
   3  16
     1.868605909968221     0.442170272403237     0.021494474869598
    -0.455132258093947     1.936191663467379     0.802758515198087
     0.014995855155547    -0.031135016132929     0.077073890143925
   4   1
     0.615787190000000    -0.011198303500000     0.351078121500000
     0.011198303500000     1.044315801000000    -2.813285569500000
     0.351078121500000     2.813285569500000   -19.258373909499998
   4   2
    -0.485139703000000    -0.025349238000000    -0.122745614000000
    -0.025349238000000    -0.327412949500000     0.703364137500000
    -0.122745614000000     0.703364137500000    -1.418274055000000
   4   3
   -27.093825581500003     5.458820883500000     0.242856657500000
    -5.458820883500000   -24.861603452499999    -1.465174190000000
     0.242856657500000     1.465174190000000     1.537127564500000
   4   4
    35.352338165500001     0.577846065500000    -0.416328325000000
     0.577846065500000    35.299310309999996     3.614007474500000
    -0.416328325000000     3.614007474500000    45.947100724000002
   4   5
     0.052239530430468    -0.040058008249066    -0.036368840222445
     0.059797389361806    -0.129893751328361     0.175639000966304
     0.608618895214427    -0.767308983973749     1.507926007456155
   4   6
     0.018311875931019     0.043550840076681     0.023508276822382
     0.028153634680072     0.027187682275572     0.154294761254509
    -0.011883221326560    -0.149576184096085     1.225000663402247
   4   7
     3.248071637294833    -3.715701616476316     0.083032314128114
     0.047737356983103     1.675979488866400     0.391858307860244
    -2.071198833812938     1.464711433797661    -2.270298383464850
   4   8
    -6.120903578535315    -7.742076522524026     0.865171731874270
    -4.981143740317401    -7.740899590060374     1.012537235453374
    -1.589427767016330    -1.994124943669013    -3.012644467174963
   4   9
     0.005125893416582    -0.011844171032835    -0.050336913341761
    -0.064408035847296     0.025371301252174     0.119731997116840
     0.021496644330360    -0.103560836593211     1.267661482201115
   4  10
     0.028732338338467     0.052082244525188     0.011085402131152
    -0.045207223368845    -0.074222676336818     0.167338644089003
    -0.653332023894614    -0.710663821099846     1.514149648018559
   4  11
    -9.371165828835077     4.985924147107555    -1.009200062435468
     6.619855147475302    -3.624985614692640     0.847967908027695
     1.845922570600776    -1.754845353600145    -2.968908138203090
   4  12
     4.338808713027867     1.054708298485109    -0.190262251235893
     2.491438027368126     0.069228577661557     0.495272163486797
     1.499145657385152     2.089569827549735    -2.264307417569223
   4  13
    -1.082244179213061    -0.027289646931409    -0.186395187426748
    -0.037884208565047    -1.127104288859907     2.090989197253597
    -0.145403768684619    -1.563086716803322     5.353994317707056
   4  14
     1.193958391716915    -0.216572928998227     0.052460815428243
     0.245477197102122     1.170182186490365    -0.156521712727209
    -0.007434742033066     0.018346587303219    -0.003945706761786
   4  15
     1.868605909968221    -0.442170272403237     0.021494474869598
     0.455132258093947     1.936191663467379    -0.802758515198087
     0.014995855155547     0.031135016132929     0.077073890143925
   4  16
    -2.569823898908169     0.059032112077836     0.361486399550522
     0.073225809116452    -3.362563301939869    -4.534664918839850
     0.435347860670385    -5.157483477109990   -27.233693826518319
   5   1
    -6.120903578535315     4.981143740317401    -1.589427767016330
     7.742076522524026    -7.740899590060374     1.994124943669013
     0.865171731874270    -1.012537235453374    -3.012644467174963
   5   2
     3.248071637294833     0.047737356983103    -2.071198833812938
    -3.715701616476316     1.675979488866400     1.464711433797661
     0.083032314128114     0.391858307860244    -2.270298383464850
   5   3
     0.018311875931019    -0.028153634680072    -0.011883221326560
    -0.043550840076681     0.027187682275572     0.149576184096085
     0.023508276822382    -0.154294761254509     1.225000663402247
   5   4
     0.052239530430468     0.059797389361806     0.608618895214427
    -0.040058008249066    -0.129893751328361    -0.767308983973749
    -0.036368840222445     0.175639000966304     1.507926007456155
   5   5
    18.140143040000002   -13.215986880000001     1.900795360000000
   -13.215986880000001    19.497565280000000    -1.701202720000000
     1.900795360000000    -1.701202720000000     5.747338240000000
   5   6
     1.411478560000000     1.973391040000000     0.187940160000000
    -1.973391040000000    -7.911211840000000    -0.551811680000000
     0.187940160000000     0.551811680000000     0.654810240000000
   5   7
     0.515187840000000    -0.478427840000000    -0.167510240000000
    -0.478427840000000     0.498980960000000     0.155436800000000
    -0.167510240000000     0.155436800000000    -0.127651040000000
   5   8
     0.238897600000000     0.212498400000000    -0.058462240000000
    -0.212498400000000    -0.228002400000000     0.063852000000000
    -0.058462240000000    -0.063852000000000    -0.119656960000000
   5   9
    -5.911692960000000     5.491818080000000     1.587229920000000
     5.217376320000000    -5.461783040000000    -1.549749600000000
    -1.547852800000000     1.465112640000000     0.311736480000000
   5  10
    -8.643938400000000    -2.341340640000000     0.759930080000000
     2.935929120000000     2.232136160000000    -0.434775360000000
    -0.760253920000000    -0.388069440000000     0.789790880000000
   5  11
    -0.597427840000000     0.560191840000000    -0.106359680000000
     0.570482080000000    -0.579990240000000     0.123823520000000
     0.131568640000000    -0.129700160000000    -0.255822720000000
   5  12
    -0.260945600000000    -0.255251040000000    -0.072276160000000
     0.241880320000000     0.276672480000000     0.057768800000000
     0.046176800000000     0.062464800000000    -0.126275360000000
   5  13
    -0.282949440000000     1.142264640000000    -2.370391840000000
     0.761825600000000    -1.034280320000000     2.645373280000000
    -1.121912800000000     1.318383040000000    -0.636835680000000
   5  14
    -0.756365440000000     0.547640000000000    -1.746596000000000
     0.809404640000000    -0.239832800000000     1.437645600000000
    -0.959642240000000     0.729082560000000    -0.990412960000000
   5  15
    -0.773517760000000     0.672657920000000     1.733285120000000
     0.969130240000000    -0.514820000000000    -1.732265280000000
     0.683012320000000    -0.541001120000000    -1.128852320000000
   5  16
    -0.277967840000000     0.631215200000000     1.415254560000000
     0.432443840000000    -0.368564800000000    -1.354565440000000
     0.730077120000000    -0.858304800000000    -1.567935040000000
   6   1
     3.248071637294833    -0.047737356983103    -2.071198833812938
     3.715701616476316     1.675979488866400    -1.464711433797661
     0.083032314128114    -0.391858307860244    -2.270298383464850
   6   2
    -6.120903578535315    -4.981143740317401    -1.589427767016330
    -7.742076522524026    -7.740899590060374    -1.994124943669013
     0.865171731874270     1.012537235453374    -3.012644467174963
   6   3
     0.052239530430468    -0.059797389361806     0.608618895214427
     0.040058008249066    -0.129893751328361     0.767308983973749
    -0.036368840222445    -0.175639000966304     1.507926007456155
   6   4
     0.018311875931019     0.028153634680072    -0.011883221326560
     0.043550840076681     0.027187682275572    -0.149576184096085
     0.023508276822382     0.154294761254509     1.225000663402247
   6   5
     1.411478560000000    -1.973391040000000     0.187940160000000
     1.973391040000000    -7.911211840000000     0.551811680000000
     0.187940160000000    -0.551811680000000     0.654810240000000
   6   6
    18.140143040000002    13.215986880000001     1.900795360000000
    13.215986880000001    19.497565280000000     1.701202720000000
     1.900795360000000     1.701202720000000     5.747338240000000
   6   7
     0.238897600000000    -0.212498400000000    -0.058462240000000
     0.212498400000000    -0.228002400000000    -0.063852000000000
    -0.058462240000000     0.063852000000000    -0.119656960000000
   6   8
     0.515187840000000     0.478427840000000    -0.167510240000000
     0.478427840000000     0.498980960000000    -0.155436800000000
    -0.167510240000000    -0.155436800000000    -0.127651040000000
   6   9
    -8.643938400000000     2.341340640000000     0.759930080000000
    -2.935929120000000     2.232136160000000     0.434775360000000
    -0.760253920000000     0.388069440000000     0.789790880000000
   6  10
    -5.911692960000000    -5.491818080000000     1.587229920000000
    -5.217376320000000    -5.461783040000000     1.549749600000000
    -1.547852800000000    -1.465112640000000     0.311736480000000
   6  11
    -0.260945600000000     0.255251040000000    -0.072276160000000
    -0.241880320000000     0.276672480000000    -0.057768800000000
     0.046176800000000    -0.062464800000000    -0.126275360000000
   6  12
    -0.597427840000000    -0.560191840000000    -0.106359680000000
    -0.570482080000000    -0.579990240000000    -0.123823520000000
     0.131568640000000     0.129700160000000    -0.255822720000000
   6  13
    -0.756365440000000    -0.547640000000000    -1.746596000000000
    -0.809404640000000    -0.239832800000000    -1.437645600000000
    -0.959642240000000    -0.729082560000000    -0.990412960000000
   6  14
    -0.282949440000000    -1.142264640000000    -2.370391840000000
    -0.761825600000000    -1.034280320000000    -2.645373280000000
    -1.121912800000000    -1.318383040000000    -0.636835680000000
   6  15
    -0.277967840000000    -0.631215200000000     1.415254560000000
    -0.432443840000000    -0.368564800000000     1.354565440000000
     0.730077120000000     0.858304800000000    -1.567935040000000
   6  16
    -0.773517760000000    -0.672657920000000     1.733285120000000
    -0.969130240000000    -0.514820000000000     1.732265280000000
     0.683012320000000     0.541001120000000    -1.128852320000000
   7   1
     0.018311875931019    -0.028153634680072    -0.011883221326560
    -0.043550840076681     0.027187682275572     0.149576184096085
     0.023508276822382    -0.154294761254509     1.225000663402247
   7   2
     0.052239530430468     0.059797389361806     0.608618895214427
    -0.040058008249066    -0.129893751328361    -0.767308983973749
    -0.036368840222445     0.175639000966304     1.507926007456155
   7   3
    -6.120903578535315     4.981143740317401    -1.589427767016330
     7.742076522524026    -7.740899590060374     1.994124943669013
     0.865171731874270    -1.012537235453374    -3.012644467174963
   7   4
     3.248071637294833     0.047737356983103    -2.071198833812938
    -3.715701616476316     1.675979488866400     1.464711433797661
     0.083032314128114     0.391858307860244    -2.270298383464850
   7   5
     0.515187840000000    -0.478427840000000    -0.167510240000000
    -0.478427840000000     0.498980960000000     0.155436800000000
    -0.167510240000000     0.155436800000000    -0.127651040000000
   7   6
     0.238897600000000     0.212498400000000    -0.058462240000000
    -0.212498400000000    -0.228002400000000     0.063852000000000
    -0.058462240000000    -0.063852000000000    -0.119656960000000
   7   7
    18.140143040000002   -13.215986880000001     1.900795360000000
   -13.215986880000001    19.497565280000000    -1.701202720000000
     1.900795360000000    -1.701202720000000     5.747338240000000
   7   8
     1.411478560000000     1.973391040000000     0.187940160000000
    -1.973391040000000    -7.911211840000000    -0.551811680000000
     0.187940160000000     0.551811680000000     0.654810240000000
   7   9
    -0.597427840000000     0.560191840000000    -0.106359680000000
     0.570482080000000    -0.579990240000000     0.123823520000000
     0.131568640000000    -0.129700160000000    -0.255822720000000
   7  10
    -0.260945600000000    -0.255251040000000    -0.072276160000000
     0.241880320000000     0.276672480000000     0.057768800000000
     0.046176800000000     0.062464800000000    -0.126275360000000
   7  11
    -5.911692960000000     5.491818080000000     1.587229920000000
     5.217376320000000    -5.461783040000000    -1.549749600000000
    -1.547852800000000     1.465112640000000     0.311736480000000
   7  12
    -8.643938400000000    -2.341340640000000     0.759930080000000
     2.935929120000000     2.232136160000000    -0.434775360000000
    -0.760253920000000    -0.388069440000000     0.789790880000000
   7  13
    -0.773517760000000     0.672657920000000     1.733285120000000
     0.969130240000000    -0.514820000000000    -1.732265280000000
     0.683012320000000    -0.541001120000000    -1.128852320000000
   7  14
    -0.277967840000000     0.631215200000000     1.415254560000000
     0.432443840000000    -0.368564800000000    -1.354565440000000
     0.730077120000000    -0.858304800000000    -1.567935040000000
   7  15
    -0.282949440000000     1.142264640000000    -2.370391840000000
     0.761825600000000    -1.034280320000000     2.645373280000000
    -1.121912800000000     1.318383040000000    -0.636835680000000
   7  16
    -0.756365440000000     0.547640000000000    -1.746596000000000
     0.809404640000000    -0.239832800000000     1.437645600000000
    -0.959642240000000     0.729082560000000    -0.990412960000000
   8   1
     0.052239530430468    -0.059797389361806     0.608618895214427
     0.040058008249066    -0.129893751328361     0.767308983973749
    -0.036368840222445    -0.175639000966304     1.507926007456155
   8   2
     0.018311875931019     0.028153634680072    -0.011883221326560
     0.043550840076681     0.027187682275572    -0.149576184096085
     0.023508276822382     0.154294761254509     1.225000663402247
   8   3
     3.248071637294833    -0.047737356983103    -2.071198833812938
     3.715701616476316     1.675979488866400    -1.464711433797661
     0.083032314128114    -0.391858307860244    -2.270298383464850
   8   4
    -6.120903578535315    -4.981143740317401    -1.589427767016330
    -7.742076522524026    -7.740899590060374    -1.994124943669013
     0.865171731874270     1.012537235453374    -3.012644467174963
   8   5
     0.238897600000000    -0.212498400000000    -0.058462240000000
     0.212498400000000    -0.228002400000000    -0.063852000000000
    -0.058462240000000     0.063852000000000    -0.119656960000000
   8   6
     0.515187840000000     0.478427840000000    -0.167510240000000
     0.478427840000000     0.498980960000000    -0.155436800000000
    -0.167510240000000    -0.155436800000000    -0.127651040000000
   8   7
     1.411478560000000    -1.973391040000000     0.187940160000000
     1.973391040000000    -7.911211840000000     0.551811680000000
     0.187940160000000    -0.551811680000000     0.654810240000000
   8   8
    18.140143040000002    13.215986880000001     1.900795360000000
    13.215986880000001    19.497565280000000     1.701202720000000
     1.900795360000000     1.701202720000000     5.747338240000000
   8   9
    -0.260945600000000     0.255251040000000    -0.072276160000000
    -0.241880320000000     0.276672480000000    -0.057768800000000
     0.046176800000000    -0.062464800000000    -0.126275360000000
   8  10
    -0.597427840000000    -0.560191840000000    -0.106359680000000
    -0.570482080000000    -0.579990240000000    -0.123823520000000
     0.131568640000000     0.129700160000000    -0.255822720000000
   8  11
    -8.643938400000000     2.341340640000000     0.759930080000000
    -2.935929120000000     2.232136160000000     0.434775360000000
    -0.760253920000000     0.388069440000000     0.789790880000000
   8  12
    -5.911692960000000    -5.491818080000000     1.587229920000000
    -5.217376320000000    -5.461783040000000     1.549749600000000
    -1.547852800000000    -1.465112640000000     0.311736480000000
   8  13
    -0.277967840000000    -0.631215200000000     1.415254560000000
    -0.432443840000000    -0.368564800000000     1.354565440000000
     0.730077120000000     0.858304800000000    -1.567935040000000
   8  14
    -0.773517760000000    -0.672657920000000     1.733285120000000
    -0.969130240000000    -0.514820000000000     1.732265280000000
     0.683012320000000     0.541001120000000    -1.128852320000000
   8  15
    -0.756365440000000    -0.547640000000000    -1.746596000000000
    -0.809404640000000    -0.239832800000000    -1.437645600000000
    -0.959642240000000    -0.729082560000000    -0.990412960000000
   8  16
    -0.282949440000000    -1.142264640000000    -2.370391840000000
    -0.761825600000000    -1.034280320000000    -2.645373280000000
    -1.121912800000000    -1.318383040000000    -0.636835680000000
   9   1
     4.338808713027867    -2.491438027368126     1.499145657385152
    -1.054708298485109     0.069228577661557    -2.089569827549735
    -0.190262251235893    -0.495272163486797    -2.264307417569223
   9   2
    -9.371165828835077     6.619855147475302     1.845922570600776
     4.985924147107555    -3.624985614692640    -1.754845353600145
    -1.009200062435468     0.847967908027695    -2.968908138203090
   9   3
     0.028732338338467     0.045207223368845    -0.653332023894614
    -0.052082244525188    -0.074222676336818     0.710663821099846
     0.011085402131152    -0.167338644089003     1.514149648018559
   9   4
     0.005125893416582    -0.064408035847296     0.021496644330360
    -0.011844171032835     0.025371301252174    -0.103560836593211
    -0.050336913341761     0.119731997116840     1.267661482201115
   9   5
    -5.911692960000000     5.217376320000000    -1.547852800000000
     5.491818080000000    -5.461783040000000     1.465112640000000
     1.587229920000000    -1.549749600000000     0.311736480000000
   9   6
    -8.643938400000000    -2.935929120000000    -0.760253920000000
     2.341340640000000     2.232136160000000     0.388069440000000
     0.759930080000000     0.434775360000000     0.789790880000000
   9   7
    -0.597427840000000     0.570482080000000     0.131568640000000
     0.560191840000000    -0.579990240000000    -0.129700160000000
    -0.106359680000000     0.123823520000000    -0.255822720000000
   9   8
    -0.260945600000000    -0.241880320000000     0.046176800000000
     0.255251040000000     0.276672480000000    -0.062464800000000
    -0.072276160000000    -0.057768800000000    -0.126275360000000
   9   9
    20.008240799999999   -12.216847200000000    -1.547429440000000
   -12.216847200000000    16.643543520000001     2.098885440000000
    -1.547429440000000     2.098885440000000     5.801259360000000
   9  10
     1.730676800000000     2.573514880000000    -0.391620000000000
    -2.573514880000000    -7.513970880000000     0.578383520000000
    -0.391620000000000    -0.578383520000000     0.601933920000000
   9  11
     0.512958880000000    -0.458631680000000     0.138096480000000
    -0.458631680000000     0.423571840000000    -0.147601120000000
     0.138096480000000    -0.147601120000000    -0.134958560000000
   9  12
     0.311111040000000     0.278149280000000     0.077414400000000
    -0.278149280000000    -0.290356160000000    -0.073921920000000
     0.077414400000000     0.073921920000000    -0.130162400000000
   9  13
    -0.604464640000000     0.791815840000000     1.705027840000000
     0.663833760000000    -0.349379360000000    -1.686824000000000
     0.798681600000000    -0.956106880000000    -1.059763840000000
   9  14
    -0.629250880000000     1.027540320000000     2.595594880000000
     1.052325760000000    -0.725835680000000    -2.377807840000000
     1.341493440000000    -1.076530400000000    -0.606243360000000
   9  15
    -0.404395040000000     0.523510880000000    -1.573108320000000
     0.505796320000000    -0.247191360000000     1.261455840000000