 vasp.5.3.3 18Dez12 (build Feb 12 2015 12:36:41) complex                        
  
 executed on             LinuxIFC date 2017.07.17  13:37:00
 running on   32 total cores
 distrk:  each k-point on   32 cores,    1 groups
 distr:  one band on NCORES_PER_BAND=   1 cores,   32 groups


--------------------------------------------------------------------------------------------------------


 INCAR:
 POTCAR:   PAW_PBE W_pv 06Sep2000                 
 POTCAR:    PAW_PBE O 08Apr2002                   

 ----------------------------------------------------------------------------- 
|                                                                             |
|           W    W    AA    RRRRR   N    N  II  N    N   GGGG   !!!           |
|           W    W   A  A   R    R  NN   N  II  NN   N  G    G  !!!           |
|           W    W  A    A  R    R  N N  N  II  N N  N  G       !!!           |
|           W WW W  AAAAAA  RRRRR   N  N N  II  N  N N  G  GGG   !            |
|           WW  WW  A    A  R   R   N   NN  II  N   NN  G    G                |
|           W    W  A    A  R    R  N    N  II  N    N   GGGG   !!!           |
|                                                                             |
|      For optimal performance we recommend that you set                      |
|        NPAR = 4 - approx SQRT( number of cores)                             |
|      (number of cores/NPAR must be integer)                                 |
|      This setting will greatly improve the performance of VASP for DFT.     |
|      The default NPAR=number of cores might be grossly inefficient          |
|      on modern multi-core architectures or massively parallel machines.     |
|      Do your own testing.                                                   |
|      Unfortunately you need to use the default for hybrid, GW and RPA       |
|      calculations.                                                          |
|                                                                             |
 ----------------------------------------------------------------------------- 

 POTCAR:   PAW_PBE W_pv 06Sep2000                 
   VRHFIN =W : 5p6s5d                                                           
   LEXCH  = PE                                                                  
   EATOM  =  1260.0376 eV,   92.6101 Ry                                         
                                                                                
   TITEL  = PAW_PBE W_pv 06Sep2000                                              
   LULTRA =        F    use ultrasoft PP ?                                      
   IUNSCR =        1    unscreen: 0-lin 1-nonlin 2-no                           
   RPACOR =    2.330    partial core radius                                     
   POMASS =  183.850; ZVAL   =   12.000    mass and valenz                      
   RCORE  =    2.500    outmost cutoff radius                                   
   RWIGS  =    2.750; RWIGS  =    1.455    wigner-seitz radius (au A)           
   ENMAX  =  223.065; ENMIN  =  167.299 eV                                      
   RCLOC  =    2.147    cutoff for local pot                                    
   LCOR   =        T    correct aug charges                                     
   LPAW   =        T    paw PP                                                  
   EAUG   =  373.438                                                            
   DEXC   =    -.018                                                            
   RMAX   =    3.087    core radius for proj-oper                               
   RAUG   =    1.300    factor for augmentation sphere                          
   RDEP   =    2.539    radius for radial grids                                 
   QCUT   =   -4.049; QGAM   =    8.098    optimization parameters              
                                                                                
   Description                                                                  
     l     E      TYP  RCUT    TYP  RCUT                                        
     1   .000     23  2.500                                                     
     1  -.200     23  2.500                                                     
     2   .000     23  2.500                                                     
     2   .000     23  2.500                                                     
     0   .000     23  2.500                                                     
     0   .000     23  2.500                                                     
     3   .000      7   .000                                                     
  local pseudopotential read in
  partial core-charges read in
  atomic valenz-charges read in
  non local Contribution for L=           1  read in
    real space projection operators read in
  non local Contribution for L=           1  read in
    real space projection operators read in
  non local Contribution for L=           2  read in
    real space projection operators read in
  non local Contribution for L=           2  read in
    real space projection operators read in
  non local Contribution for L=           0  read in
    real space projection operators read in
  non local Contribution for L=           0  read in
    real space projection operators read in
    PAW grid and wavefunctions read in
 
   number of l-projection  operators is LMAX  =           6
   number of lm-projection operators is LMMAX =          18
 
 POTCAR:    PAW_PBE O 08Apr2002                   
   VRHFIN =O: s2p4                                                              
   LEXCH  = PE                                                                  
   EATOM  =   432.3788 eV,   31.7789 Ry                                         
                                                                                
   TITEL  = PAW_PBE O 08Apr2002                                                 
   LULTRA =        F    use ultrasoft PP ?                                      
   IUNSCR =        1    unscreen: 0-lin 1-nonlin 2-no                           
   RPACOR =    1.200    partial core radius                                     
   POMASS =   16.000; ZVAL   =    6.000    mass and valenz                      
   RCORE  =    1.520    outmost cutoff radius                                   
   RWIGS  =    1.550; RWIGS  =    0.820    wigner-seitz radius (au A)           
   ENMAX  =  400.000; ENMIN  =  300.000 eV                                      
   ICORE  =        2    local potential                                         
   LCOR   =        T    correct aug charges                                     
   LPAW   =        T    paw PP                                                  
   EAUG   =  605.392                                                            
   DEXC   =    0.000                                                            
   RMAX   =    1.553    core radius for proj-oper                               
   RAUG   =    1.300    factor for augmentation sphere                          
   RDEP   =    1.550    radius for radial grids                                 
   RDEPT  =    1.329    core radius for aug-charge                              
                                                                                
   Atomic configuration                                                         
    4 entries                                                                   
     n  l   j            E        occ.                                          
     1  0  0.50      -514.6923   2.0000                                         
     2  0  0.50       -23.9615   2.0000                                         
     2  1  0.50        -9.0305   4.0000                                         
     3  2  1.50        -9.5241   0.0000                                         
   Description                                                                  
     l       E           TYP  RCUT    TYP  RCUT                                 
     0    -23.9615318     23  1.200                                             
     0     -9.5240782     23  1.200                                             
     1     -9.0304911     23  1.520                                             
     1      8.1634956     23  1.520                                             
     2     -9.5240782      7  1.500                                             
  local pseudopotential read in
  partial core-charges read in
  partial kinetic energy density read in
  kinetic energy density of atom read in
  atomic valenz-charges read in
  non local Contribution for L=           0  read in
    real space projection operators read in
  non local Contribution for L=           0  read in
    real space projection operators read in
  non local Contribution for L=           1  read in
    real space projection operators read in
  non local Contribution for L=           1  read in
    real space projection operators read in
    PAW grid and wavefunctions read in
 
   number of l-projection  operators is LMAX  =           4
   number of lm-projection operators is LMMAX =           8
 

 ----------------------------------------------------------------------------- 
|                                                                             |
|  ADVICE TO THIS USER RUNNING 'VASP/VAMP'   (HEAR YOUR MASTER'S VOICE ...):  |
|                                                                             |
|      You enforced a specific xc-type in the INCAR file,                     |
|      a different type was found on the POTCAR file                          |
|          I HOPE YOU KNOW, WHAT YOU ARE  DOING                               |
|                                                                             |
 ----------------------------------------------------------------------------- 

 PAW_PBE W_pv 06Sep2000                 :
 energy of atom  1       EATOM=-1260.0376
 kinetic energy error for atom=    0.0015 (will be added to EATOM!!)
  PAW_PBE O 08Apr2002                   :
 energy of atom  2       EATOM= -432.3788
 kinetic energy error for atom=    0.0194 (will be added to EATOM!!)
 
 
 POSCAR: ABINIT generated POSCAR file. Title stri
  positions in direct lattice
  velocities in cartesian coordinates
 exchange correlation table for  LEXCH =       14
   RHO(1)=    0.500       N(1)  =     2000
   RHO(2)=  100.500       N(2)  =     4000
 


--------------------------------------------------------------------------------------------------------


 ion  position               nearest neighbor table
   1  0.753  0.769  0.781-  13 1.78   5 1.83  10 1.84   9 1.99   6 1.99  16 2.13
   2  0.247  0.269  0.719-  14 1.78   6 1.83   9 1.84  10 1.99   5 1.99  15 2.13
   3  0.247  0.231  0.219-  15 1.78   7 1.83  12 1.84  11 1.99   8 1.99  14 2.13
   4  0.753  0.731  0.281-  16 1.78   8 1.83  11 1.84  12 1.99   7 1.99  13 2.13
   5  0.526  0.028  0.772-   1 1.83   2 1.99
   6  0.474  0.528  0.728-   2 1.83   1 1.99
   7  0.474  0.972  0.228-   3 1.83   4 1.99
   8  0.526  0.472  0.272-   4 1.83   3 1.99
   9  0.967  0.472  0.728-   2 1.84   1 1.99
  10  0.033  0.972  0.772-   1 1.84   2 1.99
  11  0.033  0.528  0.272-   4 1.84   3 1.99
  12  0.967  0.028  0.228-   3 1.84   4 1.99
  13  0.751  0.708  0.007-   1 1.78   4 2.13
  14  0.249  0.208  0.493-   2 1.78   3 2.13
  15  0.249  0.292  0.993-   3 1.78   2 2.13
  16  0.751  0.792  0.507-   4 1.78   1 2.13
 
  LATTYP: Found a simple monoclinic cell.
 ALAT       =     9.3472638010
 B/A-ratio  =     0.5659026162
 C/A-ratio  =     1.7463600063
 COS(beta)  =    -0.9626249623
  
  Lattice vectors:
  
 A1 = (  -5.2394284908,  -0.0000000000,  -7.7407835298)
 A2 = (   0.0000000000,  -5.2896410390,   0.0000000000)
 A3 = (   5.1467096227,   0.0000000000,  15.4910993550)


Analysis of symmetry for initial positions (statically):
=====================================================================
 Subroutine PRICEL returns:
 Original cell was already a primitive cell.
 

 Routine SETGRP: Setting up the symmetry group for a 
 simple monoclinic supercell.


 Subroutine GETGRP returns: Found  4 space group operations
 (whereof  2 operations were pure point group operations)
 out of a pool of  4 trial point group operations.


The static configuration has the point symmetry S_2 .
 The point group associated with its full space group is C_2h.


Analysis of symmetry for dynamics (positions and initial velocities):
=====================================================================
 Subroutine PRICEL returns:
 Original cell was already a primitive cell.
 

 Routine SETGRP: Setting up the symmetry group for a 
 simple monoclinic supercell.


 Subroutine GETGRP returns: Found  4 space group operations
 (whereof  2 operations were pure point group operations)
 out of a pool of  4 trial point group operations.


The dynamic configuration has the point symmetry S_2 .
 The point group associated with its full space group is C_2h.


 irot  :   1
 --------------------------------------------------------------------
 isymop:   1   0   0
           0   1   0
           0   0   1

 gtrans:     0.0000000     0.0000000     0.0000000

 ptrans:     0.0000000     0.0000000     0.0000000
 rotmap:
 (   1->   1)  (   2->   2)  (   3->   3)  (   4->   4)  (   5->   5) 
 (   6->   6)  (   7->   7)  (   8->   8)  (   9->   9)  (  10->  10) 
 (  11->  11)  (  12->  12)  (  13->  13)  (  14->  14)  (  15->  15) 
 (  16->  16) 


 irot  :   2
 --------------------------------------------------------------------
 isymop:  -1   0   0
           0  -1   0
           0   0  -1

 gtrans:     0.0000000     0.0000000     0.0000000

 ptrans:     0.0000000     0.0000000     0.0000000
 rotmap:
 (   1->   3)  (   2->   4)  (   3->   1)  (   4->   2)  (   5->   7) 
 (   6->   8)  (   7->   5)  (   8->   6)  (   9->  11)  (  10->  12) 
 (  11->   9)  (  12->  10)  (  13->  15)  (  14->  16)  (  15->  13) 
 (  16->  14) 


 irot  :   3
 --------------------------------------------------------------------
 isymop:  -1   0   0
           0   1   0
           0   0  -1

 gtrans:     0.0000000    -0.5000000     0.5000000

 ptrans:     0.0000000     0.0000000     0.0000000
 rotmap:
 (   1->   2)  (   2->   1)  (   3->   4)  (   4->   3)  (   5->   6) 
 (   6->   5)  (   7->   8)  (   8->   7)  (   9->  10)  (  10->   9) 
 (  11->  12)  (  12->  11)  (  13->  14)  (  14->  13)  (  15->  16) 
 (  16->  15) 


 irot  :   4
 --------------------------------------------------------------------
 isymop:   1   0   0
           0  -1   0
           0   0   1

 gtrans:     0.0000000    -0.5000000     0.5000000

 ptrans:     0.0000000     0.0000000     0.0000000
 rotmap:
 (   1->   4)  (   2->   3)  (   3->   2)  (   4->   1)  (   5->   8) 
 (   6->   7)  (   7->   6)  (   8->   5)  (   9->  12)  (  10->  11) 
 (  11->  10)  (  12->   9)  (  13->  16)  (  14->  15)  (  15->  14) 
 (  16->  13) 
 
 
 KPOINTS: Automatic mesh                          

Automatic generation of k-mesh.
Space group operators:
 irot       det(A)        alpha          n_x          n_y          n_z        tau_x        tau_y        tau_z
    1     1.000000     0.000000     1.000000     0.000000     0.000000     0.000000     0.000000     0.000000
    2    -1.000000     0.000000     1.000000     0.000000     0.000000     0.000000     0.000000     0.000000
    3     1.000000   180.000000     0.000000    -1.000000     0.000000     0.000000    -0.500000     0.500000
    4    -1.000000   180.000000     0.000000    -1.000000     0.000000     0.000000    -0.500000     0.500000
 
 Subroutine IBZKPT returns following result:
 ===========================================
 
 Found     36 irreducible k-points:
 
 Following reciprocal coordinates:
            Coordinates               Weight
  0.083333  0.083333  0.125000      4.000000
  0.250000  0.083333  0.125000      4.000000
  0.416667  0.083333  0.125000      4.000000
 -0.416667  0.083333  0.125000      4.000000
 -0.250000  0.083333  0.125000      4.000000
 -0.083333  0.083333  0.125000      4.000000
  0.083333  0.250000  0.125000      4.000000
  0.250000  0.250000  0.125000      4.000000
  0.416667  0.250000  0.125000      4.000000
 -0.416667  0.250000  0.125000      4.000000
 -0.250000  0.250000  0.125000      4.000000
 -0.083333  0.250000  0.125000      4.000000
  0.083333  0.416667  0.125000      4.000000
  0.250000  0.416667  0.125000      4.000000
  0.416667  0.416667  0.125000      4.000000
 -0.416667  0.416667  0.125000      4.000000
 -0.250000  0.416667  0.125000      4.000000
 -0.083333  0.416667  0.125000      4.000000
  0.083333  0.083333  0.375000      4.000000
  0.250000  0.083333  0.375000      4.000000
  0.416667  0.083333  0.375000      4.000000
 -0.416667  0.083333  0.375000      4.000000
 -0.250000  0.083333  0.375000      4.000000
 -0.083333  0.083333  0.375000      4.000000
  0.083333  0.250000  0.375000      4.000000
  0.250000  0.250000  0.375000      4.000000
  0.416667  0.250000  0.375000      4.000000
 -0.416667  0.250000  0.375000      4.000000
 -0.250000  0.250000  0.375000      4.000000
 -0.083333  0.250000  0.375000      4.000000
  0.083333  0.416667  0.375000      4.000000
  0.250000  0.416667  0.375000      4.000000
  0.416667  0.416667  0.375000      4.000000
 -0.416667  0.416667  0.375000      4.000000
 -0.250000  0.416667  0.375000      4.000000
 -0.083333  0.416667  0.375000      4.000000
 
 Following cartesian coordinates:
            Coordinates               Weight
  0.015658  0.015754  0.016316      4.000000
  0.046915  0.015754  0.016690      4.000000
  0.078173  0.015754  0.017064      4.000000
 -0.078115  0.015754  0.015194      4.000000
 -0.046858  0.015754  0.015568      4.000000
 -0.015600  0.015754  0.015942      4.000000
  0.015658  0.047262  0.016316      4.000000
  0.046915  0.047262  0.016690      4.000000
  0.078173  0.047262  0.017064      4.000000
 -0.078115  0.047262  0.015194      4.000000
 -0.046858  0.047262  0.015568      4.000000
 -0.015600  0.047262  0.015942      4.000000
  0.015658  0.078770  0.016316      4.000000
  0.046915  0.078770  0.016690      4.000000
  0.078173  0.078770  0.017064      4.000000
 -0.078115  0.078770  0.015194      4.000000
 -0.046858  0.078770  0.015568      4.000000
 -0.015600  0.078770  0.015942      4.000000
  0.015715  0.015754  0.048573      4.000000
  0.046973  0.015754  0.048947      4.000000
  0.078231  0.015754  0.049321      4.000000
 -0.078058  0.015754  0.047451      4.000000
 -0.046800  0.015754  0.047825      4.000000
 -0.015542  0.015754  0.048199      4.000000
  0.015715  0.047262  0.048573      4.000000
  0.046973  0.047262  0.048947      4.000000
  0.078231  0.047262  0.049321      4.000000
 -0.078058  0.047262  0.047451      4.000000
 -0.046800  0.047262  0.047825      4.000000
 -0.015542  0.047262  0.048199      4.000000
  0.015715  0.078770  0.048573      4.000000
  0.046973  0.078770  0.048947      4.000000
  0.078231  0.078770  0.049321      4.000000
 -0.078058  0.078770  0.047451      4.000000
 -0.046800  0.078770  0.047825      4.000000
 -0.015542  0.078770  0.048199      4.000000
 
 TETIRR: Found    400 inequivalent tetrahedra from      864
 
 Subroutine IBZKPT_HF returns following result:
 ==============================================
 
 Found    144 k-points in 1st BZ
 the following    144 k-points will be used (e.g. in the exchange kernel)
 Following reciprocal coordinates:   # in IRBZ
  0.083333  0.083333  0.125000       1 t-inv F
  0.250000  0.083333  0.125000       2 t-inv F
  0.416667  0.083333  0.125000       3 t-inv F
 -0.416667  0.083333  0.125000       4 t-inv F
 -0.250000  0.083333  0.125000       5 t-inv F
 -0.083333  0.083333  0.125000       6 t-inv F
  0.083333  0.250000  0.125000       7 t-inv F
  0.250000  0.250000  0.125000       8 t-inv F
  0.416667  0.250000  0.125000       9 t-inv F
 -0.416667  0.250000  0.125000      10 t-inv F
 -0.250000  0.250000  0.125000      11 t-inv F
 -0.083333  0.250000  0.125000      12 t-inv F
  0.083333  0.416667  0.125000      13 t-inv F
  0.250000  0.416667  0.125000      14 t-inv F
  0.416667  0.416667  0.125000      15 t-inv F
 -0.416667  0.416667  0.125000      16 t-inv F
 -0.250000  0.416667  0.125000      17 t-inv F
 -0.083333  0.416667  0.125000      18 t-inv F
  0.083333  0.083333  0.375000      19 t-inv F
  0.250000  0.083333  0.375000      20 t-inv F
  0.416667  0.083333  0.375000      21 t-inv F
 -0.416667  0.083333  0.375000      22 t-inv F
 -0.250000  0.083333  0.375000      23 t-inv F
 -0.083333  0.083333  0.375000      24 t-inv F
  0.083333  0.250000  0.375000      25 t-inv F
  0.250000  0.250000  0.375000      26 t-inv F
  0.416667  0.250000  0.375000      27 t-inv F
 -0.416667  0.250000  0.375000      28 t-inv F
 -0.250000  0.250000  0.375000      29 t-inv F
 -0.083333  0.250000  0.375000      30 t-inv F
  0.083333  0.416667  0.375000      31 t-inv F
  0.250000  0.416667  0.375000      32 t-inv F
  0.416667  0.416667  0.375000      33 t-inv F
 -0.416667  0.416667  0.375000      34 t-inv F
 -0.250000  0.416667  0.375000      35 t-inv F
 -0.083333  0.416667  0.375000      36 t-inv F
 -0.083333 -0.083333 -0.125000       1 t-inv F
 -0.083333  0.083333 -0.125000       1 t-inv F
  0.083333 -0.083333  0.125000       1 t-inv F
 -0.250000 -0.083333 -0.125000       2 t-inv F
 -0.250000  0.083333 -0.125000       2 t-inv F
  0.250000 -0.083333  0.125000       2 t-inv F
 -0.416667 -0.083333 -0.125000       3 t-inv F
 -0.416667  0.083333 -0.125000       3 t-inv F
  0.416667 -0.083333  0.125000       3 t-inv F
  0.416667 -0.083333 -0.125000       4 t-inv F
  0.416667  0.083333 -0.125000       4 t-inv F
 -0.416667 -0.083333  0.125000       4 t-inv F
  0.250000 -0.083333 -0.125000       5 t-inv F
  0.250000  0.083333 -0.125000       5 t-inv F
 -0.250000 -0.083333  0.125000       5 t-inv F
  0.083333 -0.083333 -0.125000       6 t-inv F
  0.083333  0.083333 -0.125000       6 t-inv F
 -0.083333 -0.083333  0.125000       6 t-inv F
 -0.083333 -0.250000 -0.125000       7 t-inv F
 -0.083333  0.250000 -0.125000       7 t-inv F
  0.083333 -0.250000  0.125000       7 t-inv F
 -0.250000 -0.250000 -0.125000       8 t-inv F
 -0.250000  0.250000 -0.125000       8 t-inv F
  0.250000 -0.250000  0.125000       8 t-inv F
 -0.416667 -0.250000 -0.125000       9 t-inv F
 -0.416667  0.250000 -0.125000       9 t-inv F
  0.416667 -0.250000  0.125000       9 t-inv F
  0.416667 -0.250000 -0.125000      10 t-inv F
  0.416667  0.250000 -0.125000      10 t-inv F
 -0.416667 -0.250000  0.125000      10 t-inv F
  0.250000 -0.250000 -0.125000      11 t-inv F
  0.250000  0.250000 -0.125000      11 t-inv F
 -0.250000 -0.250000  0.125000      11 t-inv F
  0.083333 -0.250000 -0.125000      12 t-inv F
  0.083333  0.250000 -0.125000      12 t-inv F
 -0.083333 -0.250000  0.125000      12 t-inv F
 -0.083333 -0.416667 -0.125000      13 t-inv F
 -0.083333  0.416667 -0.125000      13 t-inv F
  0.083333 -0.416667  0.125000      13 t-inv F
 -0.250000 -0.416667 -0.125000      14 t-inv F
 -0.250000  0.416667 -0.125000      14 t-inv F
  0.250000 -0.416667  0.125000      14 t-inv F
 -0.416667 -0.416667 -0.125000      15 t-inv F
 -0.416667  0.416667 -0.125000      15 t-inv F
  0.416667 -0.416667  0.125000      15 t-inv F
  0.416667 -0.416667 -0.125000      16 t-inv F
  0.416667  0.416667 -0.125000      16 t-inv F
 -0.416667 -0.416667  0.125000      16 t-inv F
  0.250000 -0.416667 -0.125000      17 t-inv F
  0.250000  0.416667 -0.125000      17 t-inv F
 -0.250000 -0.416667  0.125000      17 t-inv F
  0.083333 -0.416667 -0.125000      18 t-inv F
  0.083333  0.416667 -0.125000      18 t-inv F
 -0.083333 -0.416667  0.125000      18 t-inv F
 -0.083333 -0.083333 -0.375000      19 t-inv F
 -0.083333  0.083333 -0.375000      19 t-inv F
  0.083333 -0.083333  0.375000      19 t-inv F
 -0.250000 -0.083333 -0.375000      20 t-inv F
 -0.250000  0.083333 -0.375000      20 t-inv F
  0.250000 -0.083333  0.375000      20 t-inv F
 -0.416667 -0.083333 -0.375000      21 t-inv F
 -0.416667  0.083333 -0.375000      21 t-inv F
  0.416667 -0.083333  0.375000      21 t-inv F
  0.416667 -0.083333 -0.375000      22 t-inv F
  0.416667  0.083333 -0.375000      22 t-inv F
 -0.416667 -0.083333  0.375000      22 t-inv F
  0.250000 -0.083333 -0.375000      23 t-inv F
  0.250000  0.083333 -0.375000      23 t-inv F
 -0.250000 -0.083333  0.375000      23 t-inv F
  0.083333 -0.083333 -0.375000      24 t-inv F
  0.083333  0.083333 -0.375000      24 t-inv F
 -0.083333 -0.083333  0.375000      24 t-inv F
 -0.083333 -0.250000 -0.375000      25 t-inv F
 -0.083333  0.250000 -0.375000      25 t-inv F
  0.083333 -0.250000  0.375000      25 t-inv F
 -0.250000 -0.250000 -0.375000      26 t-inv F
 -0.250000  0.250000 -0.375000      26 t-inv F
  0.250000 -0.250000  0.375000      26 t-inv F
 -0.416667 -0.250000 -0.375000      27 t-inv F
 -0.416667  0.250000 -0.375000      27 t-inv F
  0.416667 -0.250000  0.375000      27 t-inv F
  0.416667 -0.250000 -0.375000      28 t-inv F
  0.416667  0.250000 -0.375000      28 t-inv F
 -0.416667 -0.250000  0.375000      28 t-inv F
  0.250000 -0.250000 -0.375000      29 t-inv F
  0.250000  0.250000 -0.375000      29 t-inv F
 -0.250000 -0.250000  0.375000      29 t-inv F
  0.083333 -0.250000 -0.375000      30 t-inv F
  0.083333  0.250000 -0.375000      30 t-inv F
 -0.083333 -0.250000  0.375000      30 t-inv F
 -0.083333 -0.416667 -0.375000      31 t-inv F
 -0.083333  0.416667 -0.375000      31 t-inv F
  0.083333 -0.416667  0.375000      31 t-inv F
 -0.250000 -0.416667 -0.375000      32 t-inv F
 -0.250000  0.416667 -0.375000      32 t-inv F
  0.250000 -0.416667  0.375000      32 t-inv F
 -0.416667 -0.416667 -0.375000      33 t-inv F
 -0.416667  0.416667 -0.375000      33 t-inv F
  0.416667 -0.416667  0.375000      33 t-inv F
  0.416667 -0.416667 -0.375000      34 t-inv F
  0.416667  0.416667 -0.375000      34 t-inv F
 -0.416667 -0.416667  0.375000      34 t-inv F
  0.250000 -0.416667 -0.375000      35 t-inv F
  0.250000  0.416667 -0.375000      35 t-inv F
 -0.250000 -0.416667  0.375000      35 t-inv F
  0.083333 -0.416667 -0.375000      36 t-inv F
  0.083333  0.416667 -0.375000      36 t-inv F
 -0.083333 -0.416667  0.375000      36 t-inv F


--------------------------------------------------------------------------------------------------------




 Dimension of arrays:
   k-points           NKPTS =     36   k-points in BZ     NKDIM =     36   number of bands    NBANDS=     96
   number of dos      NEDOS =    301   number of ions     NIONS =     16
   non local maximal  LDIM  =      6   non local SUM 2l+1 LMDIM =     18
   total plane-waves  NPLWV = 100800
   max r-space proj   IRMAX =      1   max aug-charges    IRDMAX= 210748
   dimension x,y,z NGX =    42 NGY =   40 NGZ =   60
   dimension x,y,z NGXF=    84 NGYF=   80 NGZF=  120
   support grid    NGXF=   168 NGYF=  160 NGZF=  240
   ions per type =               4  12
 NGX,Y,Z   is equivalent  to a cutoff of  13.09, 12.57, 12.87 a.u.
 NGXF,Y,Z  is equivalent  to a cutoff of  26.19, 25.14, 25.74 a.u.


 I would recommend the setting:
   dimension x,y,z NGX =    41 NGY =   40 NGZ =   59
 SYSTEM =  unknown system                          
 POSCAR =  ABINIT generated POSCAR file. Title stri

 Startparameter for this run:
   NWRITE =      2    write-flag & timer
   PREC   = accura    normal or accurate (medium, high low for compatibility)
   ISTART =      0    job   : 0-new  1-cont  2-samecut
   ICHARG =      2    charge: 1-file 2-atom 10-const
   ISPIN  =      1    spin polarized calculation?
   LNONCOLLINEAR =      F non collinear calculations
   LSORBIT =      F    spin-orbit coupling
   INIWAV =      1    electr: 0-lowe 1-rand  2-diag
   LASPH  =      F    aspherical Exc in radial PAW
   METAGGA=      F    non-selfconsistent MetaGGA calc.

 Electronic Relaxation 1
   ENCUT  =  550.0 eV  40.42 Ry    6.36 a.u.  10.20 10.11 14.82*2*pi/ulx,y,z
   ENINI  =  550.0     initial cutoff
   ENAUG  =  605.4 eV  augmentation charge cutoff
   NELM   =     80;   NELMIN=  6; NELMDL=  0     # of ELM steps 
   EDIFF  = 0.1E-08   stopping-criterion for ELM
   LREAL  =      F    real-space projection
   NLSPLINE    = F    spline interpolate recip. space projectors
   LCOMPAT=      F    compatible to vasp.4.4
   GGA_COMPAT  = T    GGA compatible to vasp.4.4-vasp.4.6
   LMAXPAW     = -100 max onsite density
   LMAXMIX     =    4 max onsite mixed and CHGCAR
   VOSKOWN=      0    Vosko Wilk Nusair interpolation
   ROPT   =    0.00000   0.00000
 Ionic relaxation
   EDIFFG = 0.1E-07   stopping-criterion for IOM
   NSW    =      1    number of steps for IOM
   NBLOCK =      1;   KBLOCK =      1    inner block; outer block 
   IBRION =      8    ionic relax: 0-MD 1-quasi-New 2-CG
   NFREE  =      0    steps in history (QN), initial steepest desc. (CG)
   ISIF   =      3    stress and relaxation
   IWAVPR =     11    prediction:  0-non 1-charg 2-wave 3-comb
   ISYM   =      2    0-nonsym 1-usesym 2-fastsym
   LCORR  =      T    Harris-Foulkes like correction to forces

   POTIM  = 0.5000    time-step for ionic-motion
   TEIN   =    0.0    initial temperature
   TEBEG  =    0.0;   TEEND  =   0.0 temperature during run
   SMASS  =  -3.00    Nose mass-parameter (am)
   estimated Nose-frequenzy (Omega)   =  0.10E-29 period in steps =****** mass=  -0.650E-27a.u.
   SCALEE = 1.0000    scale energy and forces
   NPACO  =    256;   APACO  = 16.0  distance and # of slots for P.C.
   PSTRESS=    0.0 pullay stress

  Mass of Ions in am
   POMASS = 183.85 16.00
  Ionic Valenz
   ZVAL   =  12.00  6.00
  Atomic Wigner-Seitz radii
   RWIGS  =  -1.00 -1.00
  virtual crystal weights 
   VCA    =   1.00  1.00
   NELECT =     120.0000    total number of electrons
   NUPDOWN=      -1.0000    fix difference up-down

 DOS related values:
   EMIN   =  10.00;   EMAX   =-10.00  energy-range for DOS
   EFERMI =   0.00
   ISMEAR =    -5;   SIGMA  =   0.20  broadening in eV -4-tet -1-fermi 0-gaus

 Electronic relaxation 2 (details)
   IALGO  =     38    algorithm
   LDIAG  =      T    sub-space diagonalisation (order eigenvalues)
   LSUBROT=      T    optimize rotation matrix (better conditioning)
   TURBO    =      0    0=normal 1=particle mesh
   IRESTART =      0    0=no restart 2=restart with 2 vectors
   NREBOOT  =      0    no. of reboots
   NMIN     =      0    reboot dimension
   EREF     =   0.00    reference energy to select bands
   IMIX   =      4    mixing-type and parameters
     AMIX     =   0.40;   BMIX     =  1.00
     AMIX_MAG =   1.60;   BMIX_MAG =  1.00
     AMIN     =   0.10
     WC   =   100.;   INIMIX=   1;  MIXPRE=   1;  MAXMIX= -45

 Intra band minimization:
   WEIMIN = 0.0010     energy-eigenvalue tresh-hold
   EBREAK =  0.26E-11  absolut break condition
   DEPER  =   0.30     relativ break condition  

   TIME   =   0.40     timestep for ELM

  volume/ion in A,a.u.               =      13.66        92.20
  Fermi-wavevector in a.u.,A,eV,Ry     =   1.340466  2.533113 24.447611  1.796849
  Thomas-Fermi vector in A             =   2.468777
 
 Write flags
   LWAVE  =      F    write WAVECAR
   LCHARG =      T    write CHGCAR
   LVTOT  =      F    write LOCPOT, total local potential
   LVHAR  =      F    write LOCPOT, Hartree potential only
   LELF   =      F    write electronic localiz. function (ELF)
   LORBIT =      0    0 simple, 1 ext, 2 COOP (PROOUT)


 Dipole corrections
   LMONO  =      F    monopole corrections only (constant potential shift)
   LDIPOL =      F    correct potential (dipole corrections)
   IDIPOL =      0    1-x, 2-y, 3-z, 4-all directions 
   EPSILON=  1.0000000 bulk dielectric constant

 Exchange correlation treatment:
   GGA     =    PS    GGA type
   LEXCH   =    14    internal setting for exchange type
   VOSKOWN=      0    Vosko Wilk Nusair interpolation
   LHFCALC =     F    Hartree Fock is set to
   LHFONE  =     F    Hartree Fock one center treatment
   AEXX    =    0.0000 exact exchange contribution

 Linear response parameters
   LEPSILON=     T    determine dielectric tensor
   LRPA    =     F    only Hartree local field effects (RPA)
   LNABLA  =     F    use nabla operator in PAW spheres
   LVEL    =     F    velocity operator in full k-point grid
   LINTERFAST=   F  fast interpolation
   KINTER  =     0    interpolate to denser k-point grid
   CSHIFT  =0.1000    complex shift for real part using Kramers Kronig
   OMEGAMAX=  -1.0    maximum frequency
   DEG_THRESHOLD= 0.2000000E-02 threshold for treating states as degnerate
   RTIME   =    0.100 relaxation time in fs

 Orbital magnetization related:
   ORBITALMAG=     F  switch on orbital magnetization
   LCHIMAG   =     F  perturbation theory with respect to B field
   DQ        =  0.001000  dq finite difference perturbation B field



--------------------------------------------------------------------------------------------------------


 linear response using symmetry
 charge density and potential will be updated during run
 non-spin polarized calculation
 Variant of blocked Davidson
 Davidson routine will perform the subspace rotation
 perform sub-space diagonalisation
    after iterative eigenvector-optimisation
 modified Broyden-mixing scheme, WC =      100.0
 initial mixing is a Kerker type mixing with AMIX =  0.4000 and BMIX =      1.0000
 Hartree-type preconditioning will be used
 using additional bands           36
 reciprocal scheme for non local part
 use partial core corrections
 calculate Harris-corrections to forces 
   (improved forces if not selfconsistent)
 use gradient corrections 
 use of overlap-Matrix (Vanderbilt PP)
 Fermi weights with tetrahedron method with Bloechl corrections


--------------------------------------------------------------------------------------------------------


  energy-cutoff  :      550.00
  volume of cell :      218.59
      direct lattice vectors                 reciprocal lattice vectors
     5.332147359  0.000000000 -0.009532296     0.187545715 -0.000000000  0.002243654
     0.000000000  5.289641039  0.000000000    -0.000000000  0.189048745 -0.000000000
    -0.092718868  0.000000000  7.750315825     0.000230667 -0.000000000  0.129029760

  length of vectors
     5.332155879  5.289641039  7.750870414     0.187559135  0.189048745  0.129029966


 
 k-points in units of 2pi/SCALE and weight: Automatic mesh                          
   0.01565764  0.01575406  0.01631569       0.028
   0.04691526  0.01575406  0.01668963       0.028
   0.07817288  0.01575406  0.01706358       0.028
  -0.07811521  0.01575406  0.01519386       0.028
  -0.04685760  0.01575406  0.01556781       0.028
  -0.01559998  0.01575406  0.01594175       0.028
   0.01565764  0.04726219  0.01631569       0.028
   0.04691526  0.04726219  0.01668963       0.028
   0.07817288  0.04726219  0.01706358       0.028
  -0.07811521  0.04726219  0.01519386       0.028
  -0.04685760  0.04726219  0.01556781       0.028
  -0.01559998  0.04726219  0.01594175       0.028
   0.01565764  0.07877031  0.01631569       0.028
   0.04691526  0.07877031  0.01668963       0.028
   0.07817288  0.07877031  0.01706358       0.028
  -0.07811521  0.07877031  0.01519386       0.028
  -0.04685760  0.07877031  0.01556781       0.028
  -0.01559998  0.07877031  0.01594175       0.028
   0.01571531  0.01575406  0.04857313       0.028
   0.04697293  0.01575406  0.04894707       0.028
   0.07823055  0.01575406  0.04932102       0.028
  -0.07805755  0.01575406  0.04745130       0.028
  -0.04679993  0.01575406  0.04782525       0.028
  -0.01554231  0.01575406  0.04819919       0.028
   0.01571531  0.04726219  0.04857313       0.028
   0.04697293  0.04726219  0.04894707       0.028
   0.07823055  0.04726219  0.04932102       0.028
  -0.07805755  0.04726219  0.04745130       0.028
  -0.04679993  0.04726219  0.04782525       0.028
  -0.01554231  0.04726219  0.04819919       0.028
   0.01571531  0.07877031  0.04857313       0.028
   0.04697293  0.07877031  0.04894707       0.028
   0.07823055  0.07877031  0.04932102       0.028
  -0.07805755  0.07877031  0.04745130       0.028
  -0.04679993  0.07877031  0.04782525       0.028
  -0.01554231  0.07877031  0.04819919       0.028
 
 k-points in reciprocal lattice and weights: Automatic mesh                          
   0.08333333  0.08333333  0.12500000       0.028
   0.25000000  0.08333333  0.12500000       0.028
   0.41666667  0.08333333  0.12500000       0.028
  -0.41666667  0.08333333  0.12500000       0.028
  -0.25000000  0.08333333  0.12500000       0.028
  -0.08333333  0.08333333  0.12500000       0.028
   0.08333333  0.25000000  0.12500000       0.028
   0.25000000  0.25000000  0.12500000       0.028
   0.41666667  0.25000000  0.12500000       0.028
  -0.41666667  0.25000000  0.12500000       0.028
  -0.25000000  0.25000000  0.12500000       0.028
  -0.08333333  0.25000000  0.12500000       0.028
   0.08333333  0.41666667  0.12500000       0.028
   0.25000000  0.41666667  0.12500000       0.028
   0.41666667  0.41666667  0.12500000       0.028
  -0.41666667  0.41666667  0.12500000       0.028
  -0.25000000  0.41666667  0.12500000       0.028
  -0.08333333  0.41666667  0.12500000       0.028
   0.08333333  0.08333333  0.37500000       0.028
   0.25000000  0.08333333  0.37500000       0.028
   0.41666667  0.08333333  0.37500000       0.028
  -0.41666667  0.08333333  0.37500000       0.028
  -0.25000000  0.08333333  0.37500000       0.028
  -0.08333333  0.08333333  0.37500000       0.028
   0.08333333  0.25000000  0.37500000       0.028
   0.25000000  0.25000000  0.37500000       0.028
   0.41666667  0.25000000  0.37500000       0.028
  -0.41666667  0.25000000  0.37500000       0.028
  -0.25000000  0.25000000  0.37500000       0.028
  -0.08333333  0.25000000  0.37500000       0.028
   0.08333333  0.41666667  0.37500000       0.028
   0.25000000  0.41666667  0.37500000       0.028
   0.41666667  0.41666667  0.37500000       0.028
  -0.41666667  0.41666667  0.37500000       0.028
  -0.25000000  0.41666667  0.37500000       0.028
  -0.08333333  0.41666667  0.37500000       0.028
 
 position of ions in fractional coordinates (direct lattice) 
   0.75319375  0.76876586  0.78076296
   0.24680625  0.26876586  0.71923704
   0.24680625  0.23123414  0.21923704
   0.75319375  0.73123414  0.28076296
   0.52554489  0.02824833  0.77209045
   0.47445511  0.52824833  0.72790955
   0.47445511  0.97175167  0.22790955
   0.52554489  0.47175167  0.27209045
   0.96725815  0.47180210  0.72776737
   0.03274185  0.97180210  0.77223263
   0.03274185  0.52819790  0.27223263
   0.96725815  0.02819790  0.22776737
   0.75129717  0.70774107  0.00657792
   0.24870283  0.20774107  0.49342208
   0.24870283  0.29225893  0.99342208
   0.75129717  0.79225893  0.50657792
 
 position of ions in cartesian coordinates  (Angst):
   3.94374861  4.06649543  6.04397989
   1.24932045  1.42167491  5.57196155
   1.29567988  1.22314561  1.69680364
   3.99010804  3.86796613  2.16882198
   2.73069546  0.14942351  5.97893517
   2.46237360  2.79424403  5.63700627
   2.50873303  5.14021753  1.76184836
   2.77705489  2.49539701  2.10377726
   5.09008523  2.49566373  5.63120678
   0.10298382  5.14048425  5.98473466
   0.14934326  2.79397731  2.10957675
   5.13644467  0.14915679  1.75604887
   4.00541730  3.74369619  0.04381935
   1.28037062  1.09887567  3.82180626
   1.23401119  1.54594485  7.69696418
   3.95905787  4.19076537  3.91897727
 


--------------------------------------------------------------------------------------------------------


 k-point  1 :   0.0833 0.0833 0.1250  plane waves:    6394
 k-point  2 :   0.2500 0.0833 0.1250  plane waves:    6394
 k-point  3 :   0.4167 0.0833 0.1250  plane waves:    6377
 k-point  4 :  -0.4167 0.0833 0.1250  plane waves:    6401
 k-point  5 :  -0.2500 0.0833 0.1250  plane waves:    6388
 k-point  6 :  -0.0833 0.0833 0.1250  plane waves:    6390
 k-point  7 :   0.0833 0.2500 0.1250  plane waves:    6398
 k-point  8 :   0.2500 0.2500 0.1250  plane waves:    6410
 k-point  9 :   0.4167 0.2500 0.1250  plane waves:    6397
 k-point 10 :  -0.4167 0.2500 0.1250  plane waves:    6416
 k-point 11 :  -0.2500 0.2500 0.1250  plane waves:    6399
 k-point 12 :  -0.0833 0.2500 0.1250  plane waves:    6397
 k-point 13 :   0.0833 0.4167 0.1250  plane waves:    6408
 k-point 14 :   0.2500 0.4167 0.1250  plane waves:    6413
 k-point 15 :   0.4167 0.4167 0.1250  plane waves:    6430
 k-point 16 :  -0.4167 0.4167 0.1250  plane waves:    6424
 k-point 17 :  -0.2500 0.4167 0.1250  plane waves:    6394
 k-point 18 :  -0.0833 0.4167 0.1250  plane waves:    6392
 k-point 19 :   0.0833 0.0833 0.3750  plane waves:    6412
 k-point 20 :   0.2500 0.0833 0.3750  plane waves:    6393
 k-point 21 :   0.4167 0.0833 0.3750  plane waves:    6400
 k-point 22 :  -0.4167 0.0833 0.3750  plane waves:    6404
 k-point 23 :  -0.2500 0.0833 0.3750  plane waves:    6406
 k-point 24 :  -0.0833 0.0833 0.3750  plane waves:    6408
 k-point 25 :   0.0833 0.2500 0.3750  plane waves:    6414
 k-point 26 :   0.2500 0.2500 0.3750  plane waves:    6394
 k-point 27 :   0.4167 0.2500 0.3750  plane waves:    6412
 k-point 28 :  -0.4167 0.2500 0.3750  plane waves:    6413
 k-point 29 :  -0.2500 0.2500 0.3750  plane waves:    6406
 k-point 30 :  -0.0833 0.2500 0.3750  plane waves:    6396
 k-point 31 :   0.0833 0.4167 0.3750  plane waves:    6401
 k-point 32 :   0.2500 0.4167 0.3750  plane waves:    6404
 k-point 33 :   0.4167 0.4167 0.3750  plane waves:    6407
 k-point 34 :  -0.4167 0.4167 0.3750  plane waves:    6415
 k-point 35 :  -0.2500 0.4167 0.3750  plane waves:    6402
 k-point 36 :  -0.0833 0.4167 0.3750  plane waves:    6406

 maximum and minimum number of plane-waves per node :      6430     6377

 maximum number of plane-waves:      6430
 maximum index in each direction: 
   IXMAX=   10   IYMAX=   10   IZMAX=   14
   IXMIN=  -10   IYMIN=  -10   IZMIN=  -15

 NGX is ok and might be reduce to  42
 WARNING: aliasing errors must be expected set NGY to  42 to avoid them
 NGZ is ok and might be reduce to  60
 aliasing errors are usually negligible using standard VASP settings
 and one can safely disregard these warnings

 serial   3D FFT for wavefunctions
 parallel 3D FFT for charge:
    minimum data exchange during FFTs selected (reduces bandwidth)


 total amount of memory used by VASP on root node   120321. kBytes
========================================================================

   base      :      30000. kBytes
   nonl-proj :      68333. kBytes
   fftplans  :       4545. kBytes
   grid      :       5749. kBytes
   one-center:        248. kBytes
   wavefun   :      11446. kBytes
 
 Broyden mixing: mesh for mixing (old mesh)
   NGX = 21   NGY = 21   NGZ = 29
  (NGX  = 84   NGY  = 80   NGZ  =120)
  gives a total of  12789 points

 initial charge density was supplied:
 charge density of overlapping atoms calculated
 number of electron     120.0000000 magnetization 
 keeping initial charge density in first step


--------------------------------------------------------------------------------------------------------


 Maximum index for augmentation-charges         6448 (set IRDMAX)


--------------------------------------------------------------------------------------------------------


 First call to EWALD:  gamma=   0.294
 Maximum number of real-space cells 3x 3x 2
 Maximum number of reciprocal cells 2x 2x 3

 FEWALD executed in parallel
    FEWALD:  cpu time    0.00: real time    0.00


----------------------------------------- Iteration    1(   1)  ---------------------------------------


    POTLOK:  cpu time    0.05: real time    0.05
    SETDIJ:  cpu time    0.08: real time    0.08
     EDDAV:  cpu time   10.80: real time   10.83
 BZINTS: Fermi energy: 13.916757;120.000000 electrons
         Band energy:-399.923147;  BLOECHL correction: -0.079165
       DOS:  cpu time    0.12: real time    0.12
    --------------------------------------------
      LOOP:  cpu time   11.06: real time   11.48

 eigenvalue-minimisations  :  6912
 total energy-change (2. order) : 0.1017488E+04  (-0.6864378E+04)
 number of electron     120.0000000 magnetization 
 augmentation part      120.0000000 magnetization 

 Free energy of the ion-electron system (eV)
  ---------------------------------------------------
  alpha Z        PSCENC =       625.16251515
  Ewald energy   TEWEN  =     -6802.86727700
  -1/2 Hartree   DENC   =     -3127.01770866
  -exchange  EXHF       =         0.00000000
  -V(xc)+E(xc)   XCENC  =       477.07338142
  PAW double counting   =      7406.00238549    -7373.66181403
  entropy T*S    EENTRO =         0.00000000
  eigenvalues    EBANDS =      -399.92314673
  atomic energy  EATOM  =     10212.71936894
  ---------------------------------------------------
  free energy    TOTEN  =      1017.48770456 eV

  energy without entropy =     1017.48770456  energy(sigma->0) =     1017.48770456


--------------------------------------------------------------------------------------------------------




----------------------------------------- Iteration    1(   2)  ---------------------------------------


     EDDAV:  cpu time   12.27: real time   12.23
 BZINTS: Fermi energy: -0.992905;120.000000 electrons
         Band energy:***********;  BLOECHL correction:  0.000000
       DOS:  cpu time    0.02: real time    0.02
    --------------------------------------------
      LOOP:  cpu time   12.29: real time   12.26

 eigenvalue-minimisations  :  8320
 total energy-change (2. order) :-0.1140419E+04  (-0.1087234E+04)
 number of electron     120.0000000 magnetization 
 augmentation part      120.0000000 magnetization 

 Free energy of the ion-electron system (eV)
  ---------------------------------------------------
  alpha Z        PSCENC =       625.16251515
  Ewald energy   TEWEN  =     -6802.86727700
  -1/2 Hartree   DENC   =     -3127.01770866
  -exchange  EXHF       =         0.00000000
  -V(xc)+E(xc)   XCENC  =       477.07338142
  PAW double counting   =      7406.00238549    -7373.66181403
  entropy T*S    EENTRO =         0.00000000
  eigenvalues    EBANDS =     -1540.34232599
  atomic energy  EATOM  =     10212.71936894
  ---------------------------------------------------
  free energy    TOTEN  =      -122.93147470 eV

  energy without entropy =     -122.93147470  energy(sigma->0) =     -122.93147470


--------------------------------------------------------------------------------------------------------




----------------------------------------- Iteration    1(   3)  ---------------------------------------


     EDDAV:  cpu time   13.34: real time   13.69
 BZINTS: Fermi energy: -2.305140;120.000000 electrons
         Band energy:***********;  BLOECHL correction:  0.000000
       DOS:  cpu time    0.02: real time    0.02
    --------------------------------------------
      LOOP:  cpu time   13.35: real time   13.74

 eigenvalue-minimisations  :  9184
 total energy-change (2. order) :-0.6022688E+02  (-0.5986906E+02)
 number of electron     120.0000000 magnetization 
 augmentation part      120.0000000 magnetization 

 Free energy of the ion-electron system (eV)
  ---------------------------------------------------
  alpha Z        PSCENC =       625.16251515
  Ewald energy   TEWEN  =     -6802.86727700
  -1/2 Hartree   DENC   =     -3127.01770866
  -exchange  EXHF       =         0.00000000
  -V(xc)+E(xc)   XCENC  =       477.07338142
  PAW double counting   =      7406.00238549    -7373.66181403
  entropy T*S    EENTRO =         0.00000000
  eigenvalues    EBANDS =     -1600.56921037
  atomic energy  EATOM  =     10212.71936894
  ---------------------------------------------------
  free energy    TOTEN  =      -183.15835908 eV

  energy without entropy =     -183.15835908  energy(sigma->0) =     -183.15835908


--------------------------------------------------------------------------------------------------------




----------------------------------------- Iteration    1(   4)  ---------------------------------------


     EDDAV:  cpu time   10.33: real time   10.60
 BZINTS: Fermi energy: -2.351963;120.000000 electrons
         Band energy:***********;  BLOECHL correction:  0.000000
       DOS:  cpu time    0.02: real time    0.02
    --------------------------------------------
      LOOP:  cpu time   10.34: real time   10.62

 eigenvalue-minimisations  :  7040
 total energy-change (2. order) :-0.5290055E+00  (-0.5289772E+00)
 number of electron     120.0000000 magnetization 
 augmentation part      120.0000000 magnetization 

 Free energy of the ion-electron system (eV)
  ---------------------------------------------------
  alpha Z        PSCENC =       625.16251515
  Ewald energy   TEWEN  =     -6802.86727700
  -1/2 Hartree   DENC   =     -3127.01770866
  -exchange  EXHF       =         0.00000000
  -V(xc)+E(xc)   XCENC  =       477.07338142
  PAW double counting   =      7406.00238549    -7373.66181403
  entropy T*S    EENTRO =         0.00000000
  eigenvalues    EBANDS =     -1601.09821592
  atomic energy  EATOM  =     10212.71936894
  ---------------------------------------------------
  free energy    TOTEN  =      -183.68736463 eV

  energy without entropy =     -183.68736463  energy(sigma->0) =     -183.68736463


--------------------------------------------------------------------------------------------------------




----------------------------------------- Iteration    1(   5)  ---------------------------------------


     EDDAV:  cpu time   13.36: real time   13.70
 BZINTS: Fermi energy: -2.364099;120.000000 electrons
         Band energy:***********;  BLOECHL correction:  0.000000
       DOS:  cpu time    0.01: real time    0.02
    CHARGE:  cpu time    0.63: real time    0.65
    MIXING:  cpu time    0.04: real time    0.04
    --------------------------------------------
      LOOP:  cpu time   14.04: real time   14.43

 eigenvalue-minimisations  :  9120
 total energy-change (2. order) :-0.5010220E-02  (-0.5010133E-02)
 number of electron     120.0000002 magnetization 
 augmentation part       24.2942083 magnetization 

 Broyden mixing:
  rms(total) = 0.33561E+01    rms(broyden)= 0.33556E+01
  rms(prec ) = 0.53553E+01
  weight for this iteration     100.00

 Free energy of the ion-electron system (eV)
  ---------------------------------------------------
  alpha Z        PSCENC =       625.16251515
  Ewald energy   TEWEN  =     -6802.86727700
  -1/2 Hartree   DENC   =     -3127.01770866
  -exchange  EXHF       =         0.00000000
  -V(xc)+E(xc)   XCENC  =       477.07338142
  PAW double counting   =      7406.00238549    -7373.66181403
  entropy T*S    EENTRO =         0.00000000
  eigenvalues    EBANDS =     -1601.10322614
  atomic energy  EATOM  =     10212.71936894
  ---------------------------------------------------
  free energy    TOTEN  =      -183.69237485 eV

  energy without entropy =     -183.69237485  energy(sigma->0) =     -183.69237485


--------------------------------------------------------------------------------------------------------




----------------------------------------- Iteration    1(   6)  ---------------------------------------


    POTLOK:  cpu time    0.05: real time    0.05
    SETDIJ:  cpu time    0.08: real time    0.08
     EDDAV:  cpu time   11.66: real time   12.00
 BZINTS: Fermi energy:  0.941357;120.000000 electrons
         Band energy:***********;  BLOECHL correction:  0.000000
       DOS:  cpu time    0.02: real time    0.02
    CHARGE:  cpu time    0.61: real time    0.62
    MIXING:  cpu time    0.00: real time    0.00
    --------------------------------------------
      LOOP:  cpu time   12.42: real time   12.78

 eigenvalue-minimisations  :  8096
 total energy-change (2. order) : 0.3138339E+02  (-0.1298649E+02)
 number of electron     120.0000001 magnetization 
 augmentation part       23.5311256 magnetization 

 Broyden mixing:
  rms(total) = 0.13337E+01    rms(broyden)= 0.13328E+01
  rms(prec ) = 0.17666E+01
  weight for this iteration     100.00

 eigenvalues of (default mixing * dielectric matrix)
  average eigenvalue GAMMA=   0.7395
  0.7395

 Free energy of the ion-electron system (eV)
  ---------------------------------------------------
  alpha Z        PSCENC =       625.16251515
  Ewald energy   TEWEN  =     -6802.86727700
  -1/2 Hartree   DENC   =     -3199.33402039
  -exchange  EXHF       =         0.00000000
  -V(xc)+E(xc)   XCENC  =       487.49949108
  PAW double counting   =      8074.38853900    -8061.06811633
  entropy T*S    EENTRO =         0.00000000
  eigenvalues    EBANDS =     -1488.80948078
  atomic energy  EATOM  =     10212.71936894
  ---------------------------------------------------
  free energy    TOTEN  =      -152.30898033 eV

  energy without entropy =     -152.30898033  energy(sigma->0) =     -152.30898033


--------------------------------------------------------------------------------------------------------




----------------------------------------- Iteration    1(   7)  ---------------------------------------


    POTLOK:  cpu time    0.05: real time    0.05
    SETDIJ:  cpu time    0.08: real time    0.08
     EDDAV:  cpu time   10.88: real time   11.11
 BZINTS: Fermi energy:  0.291870;120.000000 electrons
         Band energy:***********;  BLOECHL correction:  0.000000
       DOS:  cpu time    0.02: real time    0.02
    CHARGE:  cpu time    0.61: real time    0.62
    MIXING:  cpu time    0.00: real time    0.00
    --------------------------------------------
      LOOP:  cpu time   11.63: real time   11.88

 eigenvalue-minimisations  :  7392
 total energy-change (2. order) : 0.1883495E+01  (-0.1234199E+01)
 number of electron     120.0000001 magnetization 
 augmentation part       23.6039971 magnetization 

 Broyden mixing:
  rms(total) = 0.52141E+00    rms(broyden)= 0.52139E+00
  rms(prec ) = 0.68559E+00
  weight for this iteration     100.00

 eigenvalues of (default mixing * dielectric matrix)
  average eigenvalue GAMMA=   1.6189
  0.7673  2.4705

 Free energy of the ion-electron system (eV)
  ---------------------------------------------------
  alpha Z        PSCENC =       625.16251515
  Ewald energy   TEWEN  =     -6802.86727700
  -1/2 Hartree   DENC   =     -3166.85056441
  -exchange  EXHF       =         0.00000000
  -V(xc)+E(xc)   XCENC  =       484.27995918
  PAW double counting   =      8342.34839526    -8331.41503128
  entropy T*S    EENTRO =         0.00000000
  eigenvalues    EBANDS =     -1513.80285126
  atomic energy  EATOM  =     10212.71936894
  ---------------------------------------------------
  free energy    TOTEN  =      -150.42548543 eV

  energy without entropy =     -150.42548543  energy(sigma->0) =     -150.42548543


--------------------------------------------------------------------------------------------------------




----------------------------------------- Iteration    1(   8)  ---------------------------------------


    POTLOK:  cpu time    0.05: real time    0.05
    SETDIJ:  cpu time    0.08: real time    0.08
     EDDAV:  cpu time   13.22: real time   13.43
 BZINTS: Fermi energy:  0.318175;120.000000 electrons
         Band energy:***********;  BLOECHL correction:  0.000000
       DOS:  cpu time    0.02: real time    0.02
    CHARGE:  cpu time    0.62: real time    0.62
    MIXING:  cpu time    0.00: real time    0.00
    --------------------------------------------
      LOOP:  cpu time   13.99: real time   14.21

 eigenvalue-minimisations  :  9088
 total energy-change (2. order) : 0.2951017E+00  (-0.1818771E+00)
 number of electron     120.0000001 magnetization 
 augmentation part       23.7768666 magnetization 

 Broyden mixing:
  rms(total) = 0.20208E+00    rms(broyden)= 0.20206E+00
  rms(prec ) = 0.33997E+00
  weight for this iteration     100.00

 eigenvalues of (default mixing * dielectric matrix)
  average eigenvalue GAMMA=   1.3142
  2.4587  0.8512  0.6327

 Free energy of the ion-electron system (eV)
  ---------------------------------------------------
  alpha Z        PSCENC =       625.16251515
  Ewald energy   TEWEN  =     -6802.86727700
  -1/2 Hartree   DENC   =     -3135.02294297
  -exchange  EXHF       =         0.00000000
  -V(xc)+E(xc)   XCENC  =       483.02155013
  PAW double counting   =      8969.58565834    -8968.27085491
  entropy T*S    EENTRO =         0.00000000
  eigenvalues    EBANDS =     -1534.45840146
  atomic energy  EATOM  =     10212.71936894
  ---------------------------------------------------
  free energy    TOTEN  =      -150.13038378 eV

  energy without entropy =     -150.13038378  energy(sigma->0) =     -150.13038378


--------------------------------------------------------------------------------------------------------




----------------------------------------- Iteration    1(   9)  ---------------------------------------


    POTLOK:  cpu time    0.05: real time    0.05
    SETDIJ:  cpu time    0.08: real time    0.08
     EDDAV:  cpu time   11.44: real time   11.60
 BZINTS: Fermi energy:  0.233653;120.000000 electrons
         Band energy:***********;  BLOECHL correction:  0.000000
       DOS:  cpu time    0.02: real time    0.02
    CHARGE:  cpu time    0.61: real time    0.62
    MIXING:  cpu time    0.00: real time    0.00
    --------------------------------------------
      LOOP:  cpu time   12.20: real time   12.37

 eigenvalue-minimisations  :  7808
 total energy-change (2. order) : 0.8978883E-01  (-0.2869824E-01)
 number of electron     120.0000001 magnetization 
 augmentation part       23.7812611 magnetization 

 Broyden mixing:
  rms(total) = 0.71702E-01    rms(broyden)= 0.71665E-01
  rms(prec ) = 0.11871E+00
  weight for this iteration     100.00

 eigenvalues of (default mixing * dielectric matrix)
  average eigenvalue GAMMA=   1.1357
  2.3287  0.7810  0.7166  0.7166

 Free energy of the ion-electron system (eV)
  ---------------------------------------------------
  alpha Z        PSCENC =       625.16251515
  Ewald energy   TEWEN  =     -6802.86727700
  -1/2 Hartree   DENC   =     -3136.52833273
  -exchange  EXHF       =         0.00000000
  -V(xc)+E(xc)   XCENC  =       482.88915710
  PAW double counting   =      9042.77500661    -9042.17433394
  entropy T*S    EENTRO =         0.00000000
  eigenvalues    EBANDS =     -1532.01669908
  atomic energy  EATOM  =     10212.71936894
  ---------------------------------------------------
  free energy    TOTEN  =      -150.04059495 eV

  energy without entropy =     -150.04059495  energy(sigma->0) =     -150.04059495


--------------------------------------------------------------------------------------------------------




----------------------------------------- Iteration    1(  10)  ---------------------------------------


    POTLOK:  cpu time    0.05: real time    0.05
    SETDIJ:  cpu time    0.08: real time    0.08
     EDDAV:  cpu time   13.45: real time   13.78
 BZINTS: Fermi energy:  0.254755;120.000000 electrons
         Band energy:***********;  BLOECHL correction:  0.000000
       DOS:  cpu time    0.02: real time    0.02
    CHARGE:  cpu time    0.61: real time    0.62
    MIXING:  cpu time    0.00: real time    0.00
    --------------------------------------------
      LOOP:  cpu time   14.21: real time   14.57

 eigenvalue-minimisations  :  8960
 total energy-change (2. order) : 0.1377691E-01  (-0.2292110E-02)
 number of electron     120.0000001 magnetization 
 augmentation part       23.7676053 magnetization 

 Broyden mixing:
  rms(total) = 0.41962E-01    rms(broyden)= 0.41960E-01
  rms(prec ) = 0.66264E-01
  weight for this iteration     100.00

 eigenvalues of (default mixing * dielectric matrix)
  average eigenvalue GAMMA=   1.3080
  2.4032  1.3348  1.3348  0.6697  0.7978

 Free energy of the ion-electron system (eV)
  ---------------------------------------------------
  alpha Z        PSCENC =       625.16251515
  Ewald energy   TEWEN  =     -6802.86727700
  -1/2 Hartree   DENC   =     -3140.65719165
  -exchange  EXHF       =         0.00000000
  -V(xc)+E(xc)   XCENC  =       483.06513248
  PAW double counting   =      9021.31102256    -9020.33055715
  entropy T*S    EENTRO =         0.00000000
  eigenvalues    EBANDS =     -1528.42983136
  atomic energy  EATOM  =     10212.71936894
  ---------------------------------------------------
  free energy    TOTEN  =      -150.02681804 eV

  energy without entropy =     -150.02681804  energy(sigma->0) =     -150.02681804


--------------------------------------------------------------------------------------------------------




----------------------------------------- Iteration    1(  11)  ---------------------------------------


    POTLOK:  cpu time    0.05: real time    0.05
    SETDIJ:  cpu time    0.08: real time    0.08
     EDDAV:  cpu time   12.80: real time   13.02
 BZINTS: Fermi energy:  0.296519;120.000000 electrons
         Band energy:***********;  BLOECHL correction:  0.000000
       DOS:  cpu time    0.02: real time    0.02
    CHARGE:  cpu time    0.61: real time    0.62
    MIXING:  cpu time    0.00: real time    0.00
    --------------------------------------------
      LOOP:  cpu time   13.56: real time   13.79

 eigenvalue-minimisations  :  8800
 total energy-change (2. order) : 0.4935306E-02  (-0.2342339E-02)
 number of electron     120.0000001 magnetization 
 augmentation part       23.7407949 magnetization 

 Broyden mixing:
  rms(total) = 0.19322E-01    rms(broyden)= 0.19318E-01
  rms(prec ) = 0.29193E-01
  weight for this iteration     100.00

 eigenvalues of (default mixing * dielectric matrix)
  average eigenvalue GAMMA=   1.2869
  2.4168  1.9404  0.9300  0.9300  0.6913  0.8132

 Free energy of the ion-electron system (eV)
  ---------------------------------------------------
  alpha Z        PSCENC =       625.16251515
  Ewald energy   TEWEN  =     -6802.86727700
  -1/2 Hartree   DENC   =     -3147.79149888
  -exchange  EXHF       =         0.00000000
  -V(xc)+E(xc)   XCENC  =       483.41847915
  PAW double counting   =      9028.32652182    -9027.41231988
  entropy T*S    EENTRO =         0.00000000
  eigenvalues    EBANDS =     -1521.57767201
  atomic energy  EATOM  =     10212.71936894
  ---------------------------------------------------
  free energy    TOTEN  =      -150.02188273 eV

  energy without entropy =     -150.02188273  energy(sigma->0) =     -150.02188273


--------------------------------------------------------------------------------------------------------




----------------------------------------- Iteration    1(  12)  ---------------------------------------


    POTLOK:  cpu time    0.05: real time    0.06
    SETDIJ:  cpu time    0.08: real time    0.08
     EDDAV:  cpu time   13.88: real time   14.12
 BZINTS: Fermi energy:  0.307619;120.000000 electrons
         Band energy:***********;  BLOECHL correction:  0.000000
       DOS:  cpu time    0.02: real time    0.02
    CHARGE:  cpu time    0.61: real time    0.62
    MIXING:  cpu time    0.00: real time    0.00
    --------------------------------------------
      LOOP:  cpu time   14.65: real time   14.91

 eigenvalue-minimisations  :  9632
 total energy-change (2. order) : 0.2518922E-03  (-0.2781468E-03)
 number of electron     120.0000001 magnetization 
 augmentation part       23.7399092 magnetization 

 Broyden mixing:
  rms(total) = 0.49618E-02    rms(broyden)= 0.49581E-02
  rms(prec ) = 0.72333E-02
  weight for this iteration     100.00

 eigenvalues of (default mixing * dielectric matrix)
  average eigenvalue GAMMA=   1.3687
  2.4667  1.8134  1.8134  0.9934  0.9934  0.7112  0.7895

 Free energy of the ion-electron system (eV)
  ---------------------------------------------------
  alpha Z        PSCENC =       625.16251515
  Ewald energy   TEWEN  =     -6802.86727700
  -1/2 Hartree   DENC   =     -3148.34591350
  -exchange  EXHF       =         0.00000000
  -V(xc)+E(xc)   XCENC  =       483.41872578
  PAW double counting   =      9029.12593603    -9028.19559876
  entropy T*S    EENTRO =         0.00000000
  eigenvalues    EBANDS =     -1521.03938747
  atomic energy  EATOM  =     10212.71936894
  ---------------------------------------------------
  free energy    TOTEN  =      -150.02163084 eV

  energy without entropy =     -150.02163084  energy(sigma->0) =     -150.02163084


--------------------------------------------------------------------------------------------------------




----------------------------------------- Iteration    1(  13)  ---------------------------------------


    POTLOK:  cpu time    0.05: real time    0.05
    SETDIJ:  cpu time    0.08: real time    0.08
     EDDAV:  cpu time   10.59: real time   10.58
 BZINTS: Fermi energy:  0.308820;120.000000 electrons
         Band energy:***********;  BLOECHL correction:  0.000000
       DOS:  cpu time    0.02: real time    0.02
    CHARGE:  cpu time    0.61: real time    0.62
    MIXING:  cpu time    0.00: real time    0.00
    --------------------------------------------
      LOOP:  cpu time   11.36: real time   11.35

 eigenvalue-minimisations  :  7008
 total energy-change (2. order) :-0.1897273E-03  (-0.5878129E-04)
 number of electron     120.0000001 magnetization 
 augmentation part       23.7435195 magnetization 

 Broyden mixing:
  rms(total) = 0.22884E-02    rms(broyden)= 0.22872E-02
  rms(prec ) = 0.33988E-02
  weight for this iteration     100.00

 eigenvalues of (default mixing * dielectric matrix)
  average eigenvalue GAMMA=   1.4041
  2.6834  2.4503  1.4020  1.2275  0.9917  0.9917  0.7071  0.7791

 Free energy of the ion-electron system (eV)
  ---------------------------------------------------
  alpha Z        PSCENC =       625.16251515
  Ewald energy   TEWEN  =     -6802.86727700
  -1/2 Hartree   DENC   =     -3147.85749801
  -exchange  EXHF       =         0.00000000
  -V(xc)+E(xc)   XCENC  =       483.39163960
  PAW double counting   =      9028.15262142    -9027.23792736
  entropy T*S    EENTRO =         0.00000000
  eigenvalues    EBANDS =     -1521.48526330
  atomic energy  EATOM  =     10212.71936894
  ---------------------------------------------------
  free energy    TOTEN  =      -150.02182057 eV

  energy without entropy =     -150.02182057  energy(sigma->0) =     -150.02182057


--------------------------------------------------------------------------------------------------------




----------------------------------------- Iteration    1(  14)  ---------------------------------------


    POTLOK:  cpu time    0.05: real time    0.05
    SETDIJ:  cpu time    0.08: real time    0.08
     EDDAV:  cpu time   12.39: real time   12.36
 BZINTS: Fermi energy:  0.311917;120.000000 electrons
         Band energy:***********;  BLOECHL correction:  0.000000
       DOS:  cpu time    0.02: real time    0.02
    CHARGE:  cpu time    0.67: real time    0.68
    MIXING:  cpu time    0.00: real time    0.00
    --------------------------------------------
      LOOP:  cpu time   13.21: real time   13.21

 eigenvalue-minimisations  :  8032
 total energy-change (2. order) :-0.1718062E-04  (-0.6774160E-05)
 number of electron     120.0000001 magnetization 
 augmentation part       23.7426175 magnetization 

 Broyden mixing:
  rms(total) = 0.79848E-03    rms(broyden)= 0.79749E-03
  rms(prec ) = 0.11863E-02
  weight for this iteration     100.00

 eigenvalues of (default mixing * dielectric matrix)
  average eigenvalue GAMMA=   1.4209
  2.8374  2.4306  1.6472  1.2006  1.2006  0.7106  0.7731  0.9938  0.9938

 Free energy of the ion-electron system (eV)
  ---------------------------------------------------
  alpha Z        PSCENC =       625.16251515
  Ewald energy   TEWEN  =     -6802.86727700
  -1/2 Hartree   DENC   =     -3148.21126983
  -exchange  EXHF       =         0.00000000
  -V(xc)+E(xc)   XCENC  =       483.40644149
  PAW double counting   =      9026.16524017    -9025.22804148
  entropy T*S    EENTRO =         0.00000000
  eigenvalues    EBANDS =     -1521.16881518
  atomic energy  EATOM  =     10212.71936894
  ---------------------------------------------------
  free energy    TOTEN  =      -150.02183775 eV

  energy without entropy =     -150.02183775  energy(sigma->0) =     -150.02183775


--------------------------------------------------------------------------------------------------------




----------------------------------------- Iteration    1(  15)  ---------------------------------------


    POTLOK:  cpu time    0.05: real time    0.06
    SETDIJ:  cpu time    0.08: real time    0.08
     EDDAV:  cpu time   12.08: real time   12.05
 BZINTS: Fermi energy:  0.312252;120.000000 electrons
         Band energy:***********;  BLOECHL correction:  0.000000
       DOS:  cpu time    0.02: real time    0.02
    CHARGE:  cpu time    0.61: real time    0.62
    MIXING:  cpu time    0.00: real time    0.00
    --------------------------------------------
      LOOP:  cpu time   12.85: real time   12.84

 eigenvalue-minimisations  :  8064
 total energy-change (2. order) :-0.2934259E-05  (-0.8984303E-06)
 number of electron     120.0000001 magnetization 
 augmentation part       23.7425291 magnetization 

 Broyden mixing:
  rms(total) = 0.24452E-03    rms(broyden)= 0.24144E-03
  rms(prec ) = 0.34620E-03
  weight for this iteration     100.00

 eigenvalues of (default mixing * dielectric matrix)
  average eigenvalue GAMMA=   1.4561
  3.1097  2.4207  2.2918  1.2853  1.2853  0.9856  0.9856  0.7956  0.7008  0.7008

 Free energy of the ion-electron system (eV)
  ---------------------------------------------------
  alpha Z        PSCENC =       625.16251515
  Ewald energy   TEWEN  =     -6802.86727700
  -1/2 Hartree   DENC   =     -3148.25495490
  -exchange  EXHF       =         0.00000000
  -V(xc)+E(xc)   XCENC  =       483.40928482
  PAW double counting   =      9025.99476226    -9025.05809808
  entropy T*S    EENTRO =         0.00000000
  eigenvalues    EBANDS =     -1521.12744187
  atomic energy  EATOM  =     10212.71936894
  ---------------------------------------------------
  free energy    TOTEN  =      -150.02184068 eV

  energy without entropy =     -150.02184068  energy(sigma->0) =     -150.02184068


--------------------------------------------------------------------------------------------------------




----------------------------------------- Iteration    1(  16)  ---------------------------------------


    POTLOK:  cpu time    0.05: real time    0.05
    SETDIJ:  cpu time    0.08: real time    0.08
     EDDAV:  cpu time   10.98: real time   11.23
 BZINTS: Fermi energy:  0.312473;120.000000 electrons
         Band energy:***********;  BLOECHL correction:  0.000000
       DOS:  cpu time    0.02: real time    0.02
    CHARGE:  cpu time    0.64: real time    0.64
    MIXING:  cpu time    0.00: real time    0.00
    --------------------------------------------
      LOOP:  cpu time   11.77: real time   12.04

 eigenvalue-minimisations  :  7488
 total energy-change (2. order) :-0.1217060E-05  (-0.1335898E-06)
 number of electron     120.0000001 magnetization 
 augmentation part       23.7425153 magnetization 

 Broyden mixing:
  rms(total) = 0.26713E-03    rms(broyden)= 0.26444E-03
  rms(prec ) = 0.39886E-03
  weight for this iteration     100.00

 eigenvalues of (default mixing * dielectric matrix)
  average eigenvalue GAMMA=   1.4653
  3.3123  2.5729  2.3037  1.4326  1.1793  1.1793  0.9785  0.9785  0.7773  0.7017
  0.7017

 Free energy of the ion-electron system (eV)
  ---------------------------------------------------
  alpha Z        PSCENC =       625.16251515
  Ewald energy   TEWEN  =     -6802.86727700
  -1/2 Hartree   DENC   =     -3148.26278856
  -exchange  EXHF       =         0.00000000
  -V(xc)+E(xc)   XCENC  =       483.40963124
  PAW double counting   =      9025.92878559    -9024.99277984
  entropy T*S    EENTRO =         0.00000000
  eigenvalues    EBANDS =     -1521.11929741
  atomic energy  EATOM  =     10212.71936894
  ---------------------------------------------------
  free energy    TOTEN  =      -150.02184190 eV

  energy without entropy =     -150.02184190  energy(sigma->0) =     -150.02184190


--------------------------------------------------------------------------------------------------------




----------------------------------------- Iteration    1(  17)  ---------------------------------------


    POTLOK:  cpu time    0.05: real time    0.05
    SETDIJ:  cpu time    0.08: real time    0.08
     EDDAV:  cpu time   12.67: real time   12.96
 BZINTS: Fermi energy:  0.312594;120.000000 electrons
         Band energy:***********;  BLOECHL correction:  0.000000
       DOS:  cpu time    0.02: real time    0.02
    CHARGE:  cpu time    0.61: real time    0.62
    MIXING:  cpu time    0.00: real time    0.00
    --------------------------------------------
      LOOP:  cpu time   13.43: real time   13.74

 eigenvalue-minimisations  :  8576
 total energy-change (2. order) : 0.1486478E-07  (-0.6147085E-07)
 number of electron     120.0000001 magnetization 
 augmentation part       23.7425301 magnetization 

 Broyden mixing:
  rms(total) = 0.67367E-04    rms(broyden)= 0.55822E-04
  rms(prec ) = 0.78864E-04
  weight for this iteration     100.00
  WARNING: grid for Broyden might be to small

 eigenvalues of (default mixing * dielectric matrix)
  average eigenvalue GAMMA=   1.4827
  3.3966  2.4646  2.4646  1.8481  1.4302  1.0468  1.0468  0.9384  0.9384  0.7091
  0.7547  0.7547

 Free energy of the ion-electron system (eV)
  ---------------------------------------------------
  alpha Z        PSCENC =       625.16251515
  Ewald energy   TEWEN  =     -6802.86727700
  -1/2 Hartree   DENC   =     -3148.26084553
  -exchange  EXHF       =         0.00000000
  -V(xc)+E(xc)   XCENC  =       483.40910870
  PAW double counting   =      9025.92917789    -9024.99293055
  entropy T*S    EENTRO =         0.00000000
  eigenvalues    EBANDS =     -1521.12095948
  atomic energy  EATOM  =     10212.71936894
  ---------------------------------------------------
  free energy    TOTEN  =      -150.02184189 eV

  energy without entropy =     -150.02184189  energy(sigma->0) =     -150.02184189


--------------------------------------------------------------------------------------------------------




----------------------------------------- Iteration    1(  18)  ---------------------------------------


    POTLOK:  cpu time    0.05: real time    0.05
    SETDIJ:  cpu time    0.08: real time    0.08
     EDDAV:  cpu time   11.67: real time   11.92
 BZINTS: Fermi energy:  0.312582;120.000000 electrons
         Band energy:***********;  BLOECHL correction:  0.000000
       DOS:  cpu time    0.02: real time    0.02
    CHARGE:  cpu time    0.61: real time    0.62
    MIXING:  cpu time    0.00: real time    0.00
    --------------------------------------------
      LOOP:  cpu time   12.43: real time   12.69

 eigenvalue-minimisations  :  7968
 total energy-change (2. order) :-0.4885806E-08  (-0.5343642E-08)
 number of electron     120.0000001 magnetization 
 augmentation part       23.7425470 magnetization 

 Broyden mixing:
  rms(total) = 0.48616E-04    rms(broyden)= 0.30805E-04
  rms(prec ) = 0.39573E-04
  weight for this iteration     100.00
  WARNING: grid for Broyden might be to small

 eigenvalues of (default mixing * dielectric matrix)
  average eigenvalue GAMMA=   1.4749
  3.4209  2.6117  2.4438  1.9629  1.3778  1.1542  1.1542  1.0005  0.9138  0.9138
  0.7107  0.7549  0.7549

 Free energy of the ion-electron system (eV)
  ---------------------------------------------------
  alpha Z        PSCENC =       625.16251515
  Ewald energy   TEWEN  =     -6802.86727700
  -1/2 Hartree   DENC   =     -3148.25792675
  -exchange  EXHF       =         0.00000000
  -V(xc)+E(xc)   XCENC  =       483.40899680
  PAW double counting   =      9025.97818171    -9025.04253763
  entropy T*S    EENTRO =         0.00000000
  eigenvalues    EBANDS =     -1521.12316310
  atomic energy  EATOM  =     10212.71936894
  ---------------------------------------------------
  free energy    TOTEN  =      -150.02184189 eV

  energy without entropy =     -150.02184189  energy(sigma->0) =     -150.02184189


--------------------------------------------------------------------------------------------------------




----------------------------------------- Iteration    1(  19)  ---------------------------------------


    POTLOK:  cpu time    0.05: real time    0.05
    SETDIJ:  cpu time    0.08: real time    0.08
     EDDAV:  cpu time   13.01: real time   13.35
 BZINTS: Fermi energy:  0.312586;120.000000 electrons
         Band energy:***********;  BLOECHL correction:  0.000000
       DOS:  cpu time    0.02: real time    0.02
    CHARGE:  cpu time    0.62: real time    0.62
    MIXING:  cpu time    0.00: real time    0.00
    --------------------------------------------
      LOOP:  cpu time   13.78: real time   14.12

 eigenvalue-minimisations  :  8544
 total energy-change (2. order) :-0.7510607E-08  (-0.5532730E-09)
 number of electron     120.0000001 magnetization 
 augmentation part       23.7425359 magnetization 

 Broyden mixing:
  rms(total) = 0.38258E-04    rms(broyden)= 0.70474E-05
  rms(prec ) = 0.89671E-05
  weight for this iteration     100.00
  WARNING: grid for Broyden might be to small

 eigenvalues of (default mixing * dielectric matrix)
  average eigenvalue GAMMA=   1.5018
  3.4452  2.7197  2.3387  1.9050  1.9050  1.3791  1.1666  1.1666  0.9400  0.9400
  0.8909  0.7103  0.7592  0.7592

 Free energy of the ion-electron system (eV)
  ---------------------------------------------------
  alpha Z        PSCENC =       625.16251515
  Ewald energy   TEWEN  =     -6802.86727700
  -1/2 Hartree   DENC   =     -3148.26000378
  -exchange  EXHF       =         0.00000000
  -V(xc)+E(xc)   XCENC  =       483.40911836
  PAW double counting   =      9025.97895205    -9025.04330307
  entropy T*S    EENTRO =         0.00000000
  eigenvalues    EBANDS =     -1521.12121255
  atomic energy  EATOM  =     10212.71936894
  ---------------------------------------------------
  free energy    TOTEN  =      -150.02184190 eV

  energy without entropy =     -150.02184190  energy(sigma->0) =     -150.02184190


--------------------------------------------------------------------------------------------------------




----------------------------------------- Iteration    1(  20)  ---------------------------------------


    POTLOK:  cpu time    0.05: real time    0.05
    SETDIJ:  cpu time    0.08: real time    0.08
     EDDAV:  cpu time    9.28: real time    9.47
 BZINTS: Fermi energy:  0.312588;120.000000 electrons
         Band energy:***********;  BLOECHL correction:  0.000000
       DOS:  cpu time    0.02: real time    0.02
    CHARGE:  cpu time    0.61: real time    0.62
    MIXING:  cpu time    0.00: real time    0.00
    --------------------------------------------
      LOOP:  cpu time   10.04: real time   10.24

 eigenvalue-minimisations  :  5760
 total energy-change (2. order) :-0.2903107E-08  (-0.6884053E-10)
 number of electron     120.0000001 magnetization 
 augmentation part       23.7425331 magnetization 

 Broyden mixing:
  rms(total) = 0.37784E-04    rms(broyden)= 0.36913E-05
  rms(prec ) = 0.59014E-05
  weight for this iteration     100.00
  WARNING: grid for Broyden might be to small

 eigenvalues of (default mixing * dielectric matrix)
  average eigenvalue GAMMA=   1.5071
  3.4558  2.7463  2.4326  2.4326  1.7602  1.3433  1.2011  1.2011  0.9803  0.9803
  0.9232  0.9232  0.7108  0.7581  0.7581

 Free energy of the ion-electron system (eV)
  ---------------------------------------------------
  alpha Z        PSCENC =       625.16251515
  Ewald energy   TEWEN  =     -6802.86727700
  -1/2 Hartree   DENC   =     -3148.26059912
  -exchange  EXHF       =         0.00000000
  -V(xc)+E(xc)   XCENC  =       483.40914401
  PAW double counting   =      9025.97623219    -9025.04053916
  entropy T*S    EENTRO =         0.00000000
  eigenvalues    EBANDS =     -1521.12068691
  atomic energy  EATOM  =     10212.71936894
[...]
      3.990108  3.867966  2.168822    -0.204611    0.160297   -0.233264  
      2.730695  0.149424  5.978935    -0.072475   -0.220761    0.029054  
      2.462374  2.794244  5.637006     0.072475   -0.220761   -0.029054  
      2.508733  5.140218  1.761848    -0.072475   -0.220761    0.029054  
      2.777055  2.495397  2.103777     0.072475   -0.220761   -0.029054  
      5.090085  2.495664  5.631207    -0.029684   -0.092770   -0.102046  
      0.102984  5.140484  5.984735     0.029684   -0.092770    0.102046  
      0.149343  2.793977  2.109577    -0.029684   -0.092770   -0.102046  
      5.136445  0.149157  1.756049     0.029684   -0.092770    0.102046  
      4.005417  3.743696  0.043819     0.021034   -0.229777    0.007396  
      1.280371  1.098876  3.821806    -0.021034   -0.229777   -0.007396  
      1.234011  1.545945  7.696964     0.021034   -0.229777    0.007396  
      3.959058  4.190765  3.918977    -0.021034   -0.229777   -0.007396  
 
  37 f  =    5.397606 THz    33.914159 2PiTHz  180.044751 cm-1    22.322712 meV
             X         Y         Z           dx          dy          dz
      3.943749  4.066495  6.043980     0.036201   -0.185470    0.374978  
      1.249320  1.421675  5.571962     0.036201    0.185470    0.374978  
      1.295680  1.223146  1.696804    -0.036201    0.185470   -0.374978  
      3.990108  3.867966  2.168822    -0.036201   -0.185470   -0.374978  
      2.730695  0.149424  5.978935    -0.078268   -0.072078    0.117583  
      2.462374  2.794244  5.637006    -0.078268    0.072078    0.117583  
      2.508733  5.140218  1.761848     0.078268    0.072078   -0.117583  
      2.777055  2.495397  2.103777     0.078268   -0.072078   -0.117583  
      5.090085  2.495664  5.631207    -0.105007   -0.034421    0.088046  
      0.102984  5.140484  5.984735    -0.105007    0.034421    0.088046  
      0.149343  2.793977  2.109577     0.105007    0.034421   -0.088046  
      5.136445  0.149157  1.756049     0.105007   -0.034421   -0.088046  
      4.005417  3.743696  0.043819     0.028548   -0.148009    0.076486  
      1.280371  1.098876  3.821806     0.028548    0.148009    0.076486  
      1.234011  1.545945  7.696964    -0.028548    0.148009   -0.076486  
      3.959058  4.190765  3.918977    -0.028548   -0.148009   -0.076486  
 
  38 f  =    5.358622 THz    33.669215 2PiTHz  178.744386 cm-1    22.161487 meV
             X         Y         Z           dx          dy          dz
      3.943749  4.066495  6.043980    -0.195191    0.179530   -0.003196  
      1.249320  1.421675  5.571962    -0.195191   -0.179530   -0.003196  
      1.295680  1.223146  1.696804    -0.195191    0.179530   -0.003196  
      3.990108  3.867966  2.168822    -0.195191   -0.179530   -0.003196  
      2.730695  0.149424  5.978935     0.234976    0.096596    0.102388  
      2.462374  2.794244  5.637006     0.234976   -0.096596    0.102388  
      2.508733  5.140218  1.761848     0.234976    0.096596    0.102388  
      2.777055  2.495397  2.103777     0.234976   -0.096596    0.102388  
      5.090085  2.495664  5.631207     0.223166    0.074753   -0.087797  
      0.102984  5.140484  5.984735     0.223166   -0.074753   -0.087797  
      0.149343  2.793977  2.109577     0.223166    0.074753   -0.087797  
      5.136445  0.149157  1.756049     0.223166   -0.074753   -0.087797  
      4.005417  3.743696  0.043819     0.203747   -0.001956   -0.003872  
      1.280371  1.098876  3.821806     0.203747    0.001956   -0.003872  
      1.234011  1.545945  7.696964     0.203747   -0.001956   -0.003872  
      3.959058  4.190765  3.918977     0.203747    0.001956   -0.003872  
 
  39 f  =    4.202046 THz    26.402233 2PiTHz  140.165160 cm-1    17.378271 meV
             X         Y         Z           dx          dy          dz
      3.943749  4.066495  6.043980    -0.110215    0.011406   -0.080580  
      1.249320  1.421675  5.571962     0.110215    0.011406    0.080580  
      1.295680  1.223146  1.696804     0.110215   -0.011406    0.080580  
      3.990108  3.867966  2.168822    -0.110215   -0.011406   -0.080580  
      2.730695  0.149424  5.978935    -0.188124   -0.137092   -0.153647  
      2.462374  2.794244  5.637006     0.188124   -0.137092    0.153647  
      2.508733  5.140218  1.761848     0.188124    0.137092    0.153647  
      2.777055  2.495397  2.103777    -0.188124    0.137092   -0.153647  
      5.090085  2.495664  5.631207     0.187859    0.205688    0.157242  
      0.102984  5.140484  5.984735    -0.187859    0.205688   -0.157242  
      0.149343  2.793977  2.109577    -0.187859   -0.205688   -0.157242  
      5.136445  0.149157  1.756049     0.187859   -0.205688    0.157242  
      4.005417  3.743696  0.043819    -0.013049    0.225287    0.013748  
      1.280371  1.098876  3.821806     0.013049    0.225287   -0.013748  
      1.234011  1.545945  7.696964     0.013049   -0.225287   -0.013748  
      3.959058  4.190765  3.918977    -0.013049   -0.225287    0.013748  
 
  40 f  =    3.934914 THz    24.723792 2PiTHz  131.254587 cm-1    16.273501 meV
             X         Y         Z           dx          dy          dz
      3.943749  4.066495  6.043980    -0.040258    0.006899   -0.438042  
      1.249320  1.421675  5.571962     0.040258    0.006899    0.438042  
      1.295680  1.223146  1.696804     0.040258   -0.006899    0.438042  
      3.990108  3.867966  2.168822    -0.040258   -0.006899   -0.438042  
      2.730695  0.149424  5.978935    -0.019236    0.011044    0.098264  
      2.462374  2.794244  5.637006     0.019236    0.011044   -0.098264  
      2.508733  5.140218  1.761848     0.019236   -0.011044   -0.098264  
      2.777055  2.495397  2.103777    -0.019236   -0.011044    0.098264  
      5.090085  2.495664  5.631207     0.042286    0.057646   -0.090108  
      0.102984  5.140484  5.984735    -0.042286    0.057646    0.090108  
      0.149343  2.793977  2.109577    -0.042286   -0.057646    0.090108  
      5.136445  0.149157  1.756049     0.042286   -0.057646   -0.090108  
      4.005417  3.743696  0.043819    -0.014026   -0.137660   -0.118007  
      1.280371  1.098876  3.821806     0.014026   -0.137660    0.118007  
      1.234011  1.545945  7.696964     0.014026    0.137660    0.118007  
      3.959058  4.190765  3.918977    -0.014026    0.137660   -0.118007  
 
  41 f  =    3.108602 THz    19.531922 2PiTHz  103.691796 cm-1    12.856149 meV
             X         Y         Z           dx          dy          dz
      3.943749  4.066495  6.043980    -0.106859   -0.036472    0.030718  
      1.249320  1.421675  5.571962     0.106859   -0.036472   -0.030718  
      1.295680  1.223146  1.696804    -0.106859   -0.036472    0.030718  
      3.990108  3.867966  2.168822     0.106859   -0.036472   -0.030718  
      2.730695  0.149424  5.978935    -0.254305   -0.196525    0.016875  
      2.462374  2.794244  5.637006     0.254305   -0.196525   -0.016875  
      2.508733  5.140218  1.761848    -0.254305   -0.196525    0.016875  
      2.777055  2.495397  2.103777     0.254305   -0.196525   -0.016875  
      5.090085  2.495664  5.631207     0.232890    0.272983   -0.006642  
      0.102984  5.140484  5.984735    -0.232890    0.272983    0.006642  
      0.149343  2.793977  2.109577     0.232890    0.272983   -0.006642  
      5.136445  0.149157  1.756049    -0.232890    0.272983    0.006642  
      4.005417  3.743696  0.043819     0.035722    0.048244    0.018018  
      1.280371  1.098876  3.821806    -0.035722    0.048244   -0.018018  
      1.234011  1.545945  7.696964     0.035722    0.048244    0.018018  
      3.959058  4.190765  3.918977    -0.035722    0.048244   -0.018018  
 
  42 f  =    2.103219 THz    13.214912 2PiTHz   70.155820 cm-1     8.698216 meV
             X         Y         Z           dx          dy          dz
      3.943749  4.066495  6.043980    -0.024783    0.365821    0.139454  
      1.249320  1.421675  5.571962     0.024783    0.365821   -0.139454  
      1.295680  1.223146  1.696804     0.024783   -0.365821   -0.139454  
      3.990108  3.867966  2.168822    -0.024783   -0.365821    0.139454  
      2.730695  0.149424  5.978935    -0.089979    0.006155    0.117665  
      2.462374  2.794244  5.637006     0.089979    0.006155   -0.117665  
      2.508733  5.140218  1.761848     0.089979   -0.006155   -0.117665  
      2.777055  2.495397  2.103777    -0.089979   -0.006155    0.117665  
      5.090085  2.495664  5.631207     0.093567    0.182841   -0.115499  
      0.102984  5.140484  5.984735    -0.093567    0.182841    0.115499  
      0.149343  2.793977  2.109577    -0.093567   -0.182841    0.115499  
      5.136445  0.149157  1.756049     0.093567   -0.182841   -0.115499  
      4.005417  3.743696  0.043819    -0.004651   -0.136275   -0.004027  
      1.280371  1.098876  3.821806     0.004651   -0.136275    0.004027  
      1.234011  1.545945  7.696964     0.004651    0.136275    0.004027  
      3.959058  4.190765  3.918977    -0.004651    0.136275   -0.004027  
 
  43 f  =    1.831440 THz    11.507279 2PiTHz   61.090272 cm-1     7.574231 meV
             X         Y         Z           dx          dy          dz
      3.943749  4.066495  6.043980     0.428388    0.000867    0.000267  
      1.249320  1.421675  5.571962     0.428388   -0.000867    0.000267  
      1.295680  1.223146  1.696804    -0.428388   -0.000867   -0.000267  
      3.990108  3.867966  2.168822    -0.428388    0.000867   -0.000267  
      2.730695  0.149424  5.978935     0.109395    0.013325    0.090578  
      2.462374  2.794244  5.637006     0.109395   -0.013325    0.090578  
      2.508733  5.140218  1.761848    -0.109395   -0.013325   -0.090578  
      2.777055  2.495397  2.103777    -0.109395    0.013325   -0.090578  
      5.090085  2.495664  5.631207     0.115901    0.019929   -0.090606  
      0.102984  5.140484  5.984735     0.115901   -0.019929   -0.090606  
      0.149343  2.793977  2.109577    -0.115901   -0.019929    0.090606  
      5.136445  0.149157  1.756049    -0.115901    0.019929    0.090606  
      4.005417  3.743696  0.043819     0.155216    0.001447    0.000544  
      1.280371  1.098876  3.821806     0.155216   -0.001447    0.000544  
      1.234011  1.545945  7.696964    -0.155216   -0.001447   -0.000544  
      3.959058  4.190765  3.918977    -0.155216    0.001447   -0.000544  
 
  44 f  =    1.394547 THz     8.762199 2PiTHz   46.517088 cm-1     5.767386 meV
             X         Y         Z           dx          dy          dz
      3.943749  4.066495  6.043980    -0.211961    0.026230   -0.004569  
      1.249320  1.421675  5.571962    -0.211961   -0.026230   -0.004569  
      1.295680  1.223146  1.696804     0.211961   -0.026230    0.004569  
      3.990108  3.867966  2.168822     0.211961    0.026230    0.004569  
      2.730695  0.149424  5.978935    -0.002178    0.015654    0.229641  
      2.462374  2.794244  5.637006    -0.002178   -0.015654    0.229641  
      2.508733  5.140218  1.761848     0.002178   -0.015654   -0.229641  
      2.777055  2.495397  2.103777     0.002178    0.015654   -0.229641  
      5.090085  2.495664  5.631207     0.001928    0.019460   -0.232044  
      0.102984  5.140484  5.984735     0.001928   -0.019460   -0.232044  
      0.149343  2.793977  2.109577    -0.001928   -0.019460    0.232044  
      5.136445  0.149157  1.756049    -0.001928    0.019460    0.232044  
      4.005417  3.743696  0.043819     0.311669   -0.002798    0.002600  
      1.280371  1.098876  3.821806     0.311669    0.002798    0.002600  
      1.234011  1.545945  7.696964    -0.311669    0.002798   -0.002600  
      3.959058  4.190765  3.918977    -0.311669   -0.002798   -0.002600  
 
  45 f  =    1.266177 THz     7.955624 2PiTHz   42.235113 cm-1     5.236489 meV
             X         Y         Z           dx          dy          dz
      3.943749  4.066495  6.043980     0.055046    0.304195   -0.133422  
      1.249320  1.421675  5.571962    -0.055046    0.304195    0.133422  
      1.295680  1.223146  1.696804    -0.055046   -0.304195    0.133422  
      3.990108  3.867966  2.168822     0.055046   -0.304195   -0.133422  
      2.730695  0.149424  5.978935     0.140401    0.174852   -0.126541  
      2.462374  2.794244  5.637006    -0.140401    0.174852    0.126541  
      2.508733  5.140218  1.761848    -0.140401   -0.174852    0.126541  
      2.777055  2.495397  2.103777     0.140401   -0.174852   -0.126541  
      5.090085  2.495664  5.631207    -0.119920   -0.077091    0.121405  
      0.102984  5.140484  5.984735     0.119920   -0.077091   -0.121405  
      0.149343  2.793977  2.109577     0.119920    0.077091   -0.121405  
      5.136445  0.149157  1.756049    -0.119920    0.077091    0.121405  
      4.005417  3.743696  0.043819     0.002232    0.187531   -0.009988  
      1.280371  1.098876  3.821806    -0.002232    0.187531    0.009988  
      1.234011  1.545945  7.696964    -0.002232   -0.187531    0.009988  
      3.959058  4.190765  3.918977     0.002232   -0.187531   -0.009988  
 
  46 f/i=    0.000899 THz     0.005650 2PiTHz    0.029996 cm-1     0.003719 meV
             X         Y         Z           dx          dy          dz
      3.943749  4.066495  6.043980     0.268317   -0.000023   -0.355343  
      1.249320  1.421675  5.571962     0.268317    0.000023   -0.355343  
      1.295680  1.223146  1.696804     0.268317   -0.000023   -0.355343  
      3.990108  3.867966  2.168822     0.268317    0.000023   -0.355343  
      2.730695  0.149424  5.978935     0.079122   -0.000006   -0.104824  
      2.462374  2.794244  5.637006     0.079122    0.000006   -0.104824  
      2.508733  5.140218  1.761848     0.079122   -0.000006   -0.104824  
      2.777055  2.495397  2.103777     0.079122    0.000006   -0.104824  
      5.090085  2.495664  5.631207     0.079123   -0.000007   -0.104792  
      0.102984  5.140484  5.984735     0.079123    0.000007   -0.104792  
      0.149343  2.793977  2.109577     0.079123   -0.000007   -0.104792  
      5.136445  0.149157  1.756049     0.079123    0.000007   -0.104792  
      4.005417  3.743696  0.043819     0.079116    0.000014   -0.104821  
      1.280371  1.098876  3.821806     0.079116   -0.000014   -0.104821  
      1.234011  1.545945  7.696964     0.079116    0.000014   -0.104821  
      3.959058  4.190765  3.918977     0.079116   -0.000014   -0.104821  
 
  47 f/i=    0.001651 THz     0.010374 2PiTHz    0.055076 cm-1     0.006829 meV
             X         Y         Z           dx          dy          dz
      3.943749  4.066495  6.043980    -0.355338    0.000042   -0.268296  
      1.249320  1.421675  5.571962    -0.355338   -0.000042   -0.268296  
      1.295680  1.223146  1.696804    -0.355338    0.000042   -0.268296  
      3.990108  3.867966  2.168822    -0.355338   -0.000042   -0.268296  
      2.730695  0.149424  5.978935    -0.104805    0.000021   -0.079158  
      2.462374  2.794244  5.637006    -0.104805   -0.000021   -0.079158  
      2.508733  5.140218  1.761848    -0.104805    0.000021   -0.079158  
      2.777055  2.495397  2.103777    -0.104805   -0.000021   -0.079158  
      5.090085  2.495664  5.631207    -0.104773    0.000033   -0.079121  
      0.102984  5.140484  5.984735    -0.104773   -0.000033   -0.079121  
      0.149343  2.793977  2.109577    -0.104773    0.000033   -0.079121  
      5.136445  0.149157  1.756049    -0.104773   -0.000033   -0.079121  
      4.005417  3.743696  0.043819    -0.104877   -0.000003   -0.079157  
      1.280371  1.098876  3.821806    -0.104877    0.000003   -0.079157  
      1.234011  1.545945  7.696964    -0.104877   -0.000003   -0.079157  
      3.959058  4.190765  3.918977    -0.104877    0.000003   -0.079157  
 
  48 f/i=    0.002141 THz     0.013453 2PiTHz    0.071422 cm-1     0.008855 meV
             X         Y         Z           dx          dy          dz
      3.943749  4.066495  6.043980     0.000049    0.445268   -0.000037  
      1.249320  1.421675  5.571962    -0.000049    0.445268    0.000037  
      1.295680  1.223146  1.696804     0.000049    0.445268   -0.000037  
      3.990108  3.867966  2.168822    -0.000049    0.445268    0.000037  
      2.730695  0.149424  5.978935     0.000116    0.131441   -0.000025  
      2.462374  2.794244  5.637006    -0.000116    0.131441    0.000025  
      2.508733  5.140218  1.761848     0.000116    0.131441   -0.000025  
      2.777055  2.495397  2.103777    -0.000116    0.131441    0.000025  
      5.090085  2.495664  5.631207    -0.000147    0.131161    0.000015  
      0.102984  5.140484  5.984735     0.000147    0.131161   -0.000015  
      0.149343  2.793977  2.109577    -0.000147    0.131161    0.000015  
      5.136445  0.149157  1.756049     0.000147    0.131161   -0.000015  
      4.005417  3.743696  0.043819    -0.000013    0.131365   -0.000009  
      1.280371  1.098876  3.821806     0.000013    0.131365    0.000009  
      1.234011  1.545945  7.696964    -0.000013    0.131365   -0.000009  
      3.959058  4.190765  3.918977     0.000013    0.131365    0.000009  
 


--------------------------------------------------------------------------------------------------------




 MACROSCOPIC STATIC DIELECTRIC TENSOR IONIC CONTRIBUTION
 ------------------------------------------------------
          57.779995    -0.000000    -0.569714
          -0.000000    41.234218    -0.000000
          -0.569714    -0.000000     8.000272
 ------------------------------------------------------


 ELASTIC MODULI IONIC CONTR (kBar)
 Direction    XX          YY          ZZ          XY          YZ          ZX
 --------------------------------------------------------------------------------
 XX       -2981.5364  -2689.8220     50.8789     -0.0000      0.0000   -223.0925
 YY       -2689.8220  -3000.3873   -498.8443     -0.0000      0.0000   -271.6927
 ZZ          50.8789   -498.8443  -4950.2807     -0.0000      0.0000    -96.7752
 XY          -0.0000     -0.0000     -0.0000  -2302.3246     86.2880     -0.0000
 YZ           0.0000      0.0000      0.0000     86.2880   -316.3919      0.0000
 ZX        -223.0925   -271.6927    -96.7752     -0.0000      0.0000    -93.9338
 --------------------------------------------------------------------------------


 PIEZOELECTRIC TENSOR IONIC CONTR  for field in x, y, z        (C/m^2)
          XX          YY          ZZ          XY          YZ          ZX
  --------------------------------------------------------------------------------
  x     0.00006     0.00004    -0.00005    -0.00000     0.00000     0.00004
  y     0.00041     0.00052     0.00152     0.00000     0.00000     0.00020
  z     0.00045     0.00069    -0.00052     0.00000     0.00000     0.00005


--------------------------------------------------------------------------------------------------------


     LOOP+:  cpu time 7679.62: real time 7702.01
    4ORBIT:  cpu time    0.00: real time    0.00
 BZINTS: Fermi energy:  0.312586;120.000000 electrons
         Band energy:***********;  BLOECHL correction:  0.000000

 total amount of memory used by VASP on root node   120321. kBytes
========================================================================

   base      :      30000. kBytes
   nonl-proj :      68333. kBytes
   fftplans  :       4545. kBytes
   grid      :       5749. kBytes
   one-center:        248. kBytes
   wavefun   :      11446. kBytes
 
  
  
 General timing and accounting informations for this job:
 ========================================================
  
                  Total CPU time used (sec):     7686.135
                            User time (sec):     7457.974
                          System time (sec):      228.160
                         Elapsed time (sec):     7710.244
  
                   Maximum memory used (kb):      382084.
                   Average memory used (kb):           0.
  
                          Minor page faults:     22923618
                          Major page faults:            4
                 Voluntary context switches:       254079
