phonopy:
  version: 1.11.12
  configuration:
    eigenvectors: ".true."
    dim: "1 1 1"
    force_constants: "read"
    qpoints: ".TRUE."
    band: "0.0 0.0 0.0  0.0 0.0 0.0"
    atom_name: "W O"
    writedm: ".TRUE."
    frequency_conversion_factor: "521.471"

supercell_matrix:
- [   1,   0,   0 ]
- [   0,   1,   0 ]
- [   0,   0,   1 ]

primitive_cell:
  lattice:
  - [     5.332147358888341,     0.000000000000000,    -0.009532295509176 ] # a
  - [     0.000000000000000,     5.289641038965756,     0.000000000000000 ] # b
  - [    -0.092718868085266,     0.000000000000000,     7.750315825271944 ] # c
  points:
  - symbol: W  # 1
    coordinates: [  0.753193750211255,  0.768765856726290,  0.780762964244482 ]
    mass: 183.840000
  - symbol: W  # 2
    coordinates: [  0.246806249788753,  0.268765856726294,  0.719237035755518 ]
    mass: 183.840000
  - symbol: W  # 3
    coordinates: [  0.246806249788753,  0.231234143273705,  0.219237035755521 ]
    mass: 183.840000
  - symbol: W  # 4
    coordinates: [  0.753193750211255,  0.731234143273710,  0.280762964244482 ]
    mass: 183.840000
  - symbol: O  # 5
    coordinates: [  0.525544892752488,  0.028248326343448,  0.772090448708533 ]
    mass: 15.999400
  - symbol: O  # 6
    coordinates: [  0.474455107247511,  0.528248326343439,  0.727909551291467 ]
    mass: 15.999400
  - symbol: O  # 7
    coordinates: [  0.474455107247511,  0.971751673656561,  0.227909551291465 ]
    mass: 15.999400
  - symbol: O  # 8
    coordinates: [  0.525544892752488,  0.471751673656558,  0.272090448708535 ]
    mass: 15.999400
  - symbol: O  # 9
    coordinates: [  0.967258151837220,  0.471802095704369,  0.727767370767519 ]
    mass: 15.999400
  - symbol: O  # 10
    coordinates: [  0.032741848162797,  0.971802095704367,  0.772232629232481 ]
    mass: 15.999400
  - symbol: O  # 11
    coordinates: [  0.032741848162797,  0.528197904295633,  0.272232629232476 ]
    mass: 15.999400
  - symbol: O  # 12
    coordinates: [  0.967258151837220,  0.028197904295631,  0.227767370767525 ]
    mass: 15.999400
  - symbol: O  # 13
    coordinates: [  0.751297165797370,  0.707741066372256,  0.006577917708718 ]
    mass: 15.999400
  - symbol: O  # 14
    coordinates: [  0.248702834202632,  0.207741066372258,  0.493422082291282 ]
    mass: 15.999400
  - symbol: O  # 15
    coordinates: [  0.248702834202632,  0.292258933627743,  0.993422082291283 ]
    mass: 15.999400
  - symbol: O  # 16
    coordinates: [  0.751297165797370,  0.792258933627744,  0.506577917708717 ]
    mass: 15.999400
  reciprocal_lattice: # without 2pi
  - [     0.187545714674424,    -0.000000000000000,     0.002243653906613 ] # a*
  - [    -0.000000000000000,     0.189048745015696,    -0.000000000000000 ] # b*
  - [     0.000230666880429,    -0.000000000000000,     0.129029759524280 ] # c*

unit_cell:
  lattice:
  - [     5.332147358888341,    -0.000000000000000,    -0.009532295509176 ] # a
  - [     0.000000000000000,     5.289641038965756,    -0.000000000000000 ] # b
  - [    -0.092718868085266,     0.000000000000000,     7.750315825271944 ] # c
  points:
  - symbol: W  # 1
    coordinates: [  0.753193750211255,  0.768765856726290,  0.780762964244482 ]
    mass: 183.840000
    reduced_to: 1
  - symbol: W  # 2
    coordinates: [  0.246806249788753,  0.268765856726294,  0.719237035755518 ]
    mass: 183.840000
    reduced_to: 2
  - symbol: W  # 3
    coordinates: [  0.246806249788753,  0.231234143273705,  0.219237035755521 ]
    mass: 183.840000
    reduced_to: 3
  - symbol: W  # 4
    coordinates: [  0.753193750211255,  0.731234143273710,  0.280762964244482 ]
    mass: 183.840000
    reduced_to: 4
  - symbol: O  # 5
    coordinates: [  0.525544892752488,  0.028248326343448,  0.772090448708533 ]
    mass: 15.999400
    reduced_to: 5
  - symbol: O  # 6
    coordinates: [  0.474455107247511,  0.528248326343439,  0.727909551291467 ]
    mass: 15.999400
    reduced_to: 6
  - symbol: O  # 7
    coordinates: [  0.474455107247511,  0.971751673656561,  0.227909551291465 ]
    mass: 15.999400
    reduced_to: 7
  - symbol: O  # 8
    coordinates: [  0.525544892752488,  0.471751673656558,  0.272090448708535 ]
    mass: 15.999400
    reduced_to: 8
  - symbol: O  # 9
    coordinates: [  0.967258151837220,  0.471802095704369,  0.727767370767519 ]
    mass: 15.999400
    reduced_to: 9
  - symbol: O  # 10
    coordinates: [  0.032741848162797,  0.971802095704367,  0.772232629232481 ]
    mass: 15.999400
    reduced_to: 10
  - symbol: O  # 11
    coordinates: [  0.032741848162797,  0.528197904295633,  0.272232629232476 ]
    mass: 15.999400
    reduced_to: 11
  - symbol: O  # 12
    coordinates: [  0.967258151837220,  0.028197904295631,  0.227767370767525 ]
    mass: 15.999400
    reduced_to: 12
  - symbol: O  # 13
    coordinates: [  0.751297165797370,  0.707741066372256,  0.006577917708718 ]
    mass: 15.999400
    reduced_to: 13
  - symbol: O  # 14
    coordinates: [  0.248702834202632,  0.207741066372258,  0.493422082291282 ]
    mass: 15.999400
    reduced_to: 14
  - symbol: O  # 15
    coordinates: [  0.248702834202632,  0.292258933627743,  0.993422082291283 ]
    mass: 15.999400
    reduced_to: 15
  - symbol: O  # 16
    coordinates: [  0.751297165797370,  0.792258933627744,  0.506577917708717 ]
    mass: 15.999400
    reduced_to: 16

supercell:
  lattice:
  - [     5.332147358888341,     0.000000000000000,    -0.009532295509176 ] # a
  - [     0.000000000000000,     5.289641038965756,     0.000000000000000 ] # b
  - [    -0.092718868085266,     0.000000000000000,     7.750315825271944 ] # c
  points:
  - symbol: W  # 1
    coordinates: [  0.753193750211255,  0.768765856726290,  0.780762964244482 ]
    mass: 183.840000
    reduced_to: 1
  - symbol: W  # 2
    coordinates: [  0.246806249788753,  0.268765856726294,  0.719237035755518 ]
    mass: 183.840000
    reduced_to: 2
  - symbol: W  # 3
    coordinates: [  0.246806249788753,  0.231234143273705,  0.219237035755521 ]
    mass: 183.840000
    reduced_to: 3
  - symbol: W  # 4
    coordinates: [  0.753193750211255,  0.731234143273710,  0.280762964244482 ]
    mass: 183.840000
    reduced_to: 4
  - symbol: O  # 5
    coordinates: [  0.525544892752488,  0.028248326343448,  0.772090448708533 ]
    mass: 15.999400
    reduced_to: 5
  - symbol: O  # 6
    coordinates: [  0.474455107247511,  0.528248326343439,  0.727909551291467 ]
    mass: 15.999400
    reduced_to: 6
  - symbol: O  # 7
    coordinates: [  0.474455107247511,  0.971751673656561,  0.227909551291465 ]
    mass: 15.999400
    reduced_to: 7
  - symbol: O  # 8
    coordinates: [  0.525544892752488,  0.471751673656558,  0.272090448708535 ]
    mass: 15.999400
    reduced_to: 8
  - symbol: O  # 9
    coordinates: [  0.967258151837220,  0.471802095704369,  0.727767370767519 ]
    mass: 15.999400
    reduced_to: 9
  - symbol: O  # 10
    coordinates: [  0.032741848162797,  0.971802095704367,  0.772232629232481 ]
    mass: 15.999400
    reduced_to: 10
  - symbol: O  # 11
    coordinates: [  0.032741848162797,  0.528197904295633,  0.272232629232476 ]
    mass: 15.999400
    reduced_to: 11
  - symbol: O  # 12
    coordinates: [  0.967258151837220,  0.028197904295631,  0.227767370767525 ]
    mass: 15.999400
    reduced_to: 12
  - symbol: O  # 13
    coordinates: [  0.751297165797370,  0.707741066372256,  0.006577917708718 ]
    mass: 15.999400
    reduced_to: 13
  - symbol: O  # 14
    coordinates: [  0.248702834202632,  0.207741066372258,  0.493422082291282 ]
    mass: 15.999400
    reduced_to: 14
  - symbol: O  # 15
    coordinates: [  0.248702834202632,  0.292258933627743,  0.993422082291283 ]
    mass: 15.999400
    reduced_to: 15
  - symbol: O  # 16
    coordinates: [  0.751297165797370,  0.792258933627744,  0.506577917708717 ]
    mass: 15.999400
    reduced_to: 16
