nqpoint: 8      
natom:   16     
reciprocal_lattice:
- [   0.38002584,   0.00000000,   0.01184984 ] # a*
- [   0.00000000,   0.38832689,   0.00000000 ] # b*
- [   0.00000000,   0.00000000,   0.26266715 ] # c*
phonon:
- q-position: [    0.0000000,    0.0000000,    0.0000000 ]
  dynamical_matrix:
  - [    0.2161349424,   -0.0000000000,   -0.0042702984,    0.0000000000,   -0.0055455126,    0.0000000000,   -0.1534774232,    0.0000000000,   -0.0419151473,    0.0000000000,    0.0036262888,    0.0000000000,   -0.0033760599,    0.0000000000,    0.0003703651,    0.0000000000,   -0.0016773366,    0.0000000000,    0.0034167688,    0.0000000000,    0.0014407934,    0.0000000000,    0.0049118883,    0.0000000000,    0.0325065681,    0.0000000000,    0.0110489173,    0.0000000000,    0.0001449807,    0.0000000000,   -0.0503450948,    0.0000000000,   -0.0072983399,    0.0000000000,    0.0183707793,    0.0000000000,   -0.0202537822,    0.0000000000,   -0.0007149701,    0.0000000000,   -0.0083040960,    0.0000000000,    0.0209137648,    0.0000000000,    0.0051811270,    0.0000000000,    0.0025850567,    0.0000000000,    0.0009521299,    0.0000000000,    0.0001868583,    0.0000000000,   -0.0006671093,    0.0000000000,    0.0006771910,    0.0000000000,   -0.0010004764,    0.0000000000,   -0.0007270355,    0.0000000000,    0.0692713674,    0.0000000000,    0.0918423384,    0.0000000000,   -0.0093510859,    0.0000000000,   -0.1310127371,    0.0000000000,    0.1785101917,    0.0000000000,    0.0374446254,    0.0000000000,    0.0006398031,    0.0000000000,   -0.0014169749,    0.0000000000,   -0.0014050890,    0.0000000000,   -0.0007507714,    0.0000000000,   -0.0010243890,    0.0000000000,   -0.0002250482,    0.0000000000,    0.0940347009,    0.0000000000,   -0.0213957452,    0.0000000000,    0.0041779699,    0.0000000000,   -0.2293684963,    0.0000000000,   -0.1035529569,    0.0000000000,   -0.0461980655,    0.0000000000 ]
  - [   -0.0042702984,   -0.0000000000,    0.2200206868,   -0.0000000000,   -0.0279769997,    0.0000000000,    0.0419151473,    0.0000000000,   -0.1329141989,    0.0000000000,    0.0178996447,    0.0000000000,    0.0003703651,    0.0000000000,   -0.0023875541,    0.0000000000,   -0.0042806272,    0.0000000000,   -0.0014407934,    0.0000000000,    0.0110341608,    0.0000000000,    0.0245620723,    0.0000000000,   -0.0115689621,    0.0000000000,    0.0355037022,    0.0000000000,    0.0161057173,    0.0000000000,   -0.0045557056,    0.0000000000,   -0.0918520883,    0.0000000000,    0.1377522586,    0.0000000000,    0.0027966186,    0.0000000000,   -0.0261160197,    0.0000000000,   -0.0539563704,    0.0000000000,   -0.0063042713,    0.0000000000,    0.0204155276,    0.0000000000,    0.0017574485,    0.0000000000,   -0.0024439928,    0.0000000000,   -0.0051759755,    0.0000000000,   -0.0044475055,    0.0000000000,    0.0006899867,    0.0000000000,   -0.0006852459,    0.0000000000,   -0.0034688338,    0.0000000000,   -0.0026709377,    0.0000000000,    0.0379822148,    0.0000000000,   -0.0193145114,    0.0000000000,    0.1156937324,    0.0000000000,   -0.2042880019,    0.0000000000,   -0.0458333402,    0.0000000000,    0.0033681671,    0.0000000000,   -0.0036090605,    0.0000000000,   -0.0038529876,    0.0000000000,    0.0009830718,    0.0000000000,   -0.0015968654,    0.0000000000,   -0.0023083469,    0.0000000000,   -0.0635294488,    0.0000000000,   -0.0026861178,    0.0000000000,   -0.0247065436,    0.0000000000,   -0.1564202663,    0.0000000000,   -0.0828038584,    0.0000000000,   -0.0323875177,    0.0000000000 ]
  - [   -0.0055455126,   -0.0000000000,   -0.0279769997,   -0.0000000000,    0.2763091028,   -0.0000000000,    0.0036262888,    0.0000000000,   -0.0178996447,    0.0000000000,    0.0126557963,    0.0000000000,   -0.0016773366,    0.0000000000,   -0.0042806272,    0.0000000000,   -0.0121804972,    0.0000000000,    0.0049118883,    0.0000000000,   -0.0245620723,    0.0000000000,   -0.1075146427,    0.0000000000,    0.0009821684,    0.0000000000,   -0.0006004592,    0.0000000000,    0.0043696102,    0.0000000000,    0.0206913463,    0.0000000000,    0.1691583106,    0.0000000000,   -0.5584997794,    0.0000000000,   -0.0066534229,    0.0000000000,    0.0494442787,    0.0000000000,    0.1039703096,    0.0000000000,    0.0005842036,    0.0000000000,   -0.0038692117,    0.0000000000,    0.0010847545,    0.0000000000,    0.0143120888,    0.0000000000,    0.0191169385,    0.0000000000,    0.0281945930,    0.0000000000,    0.0003908964,    0.0000000000,    0.0042085760,    0.0000000000,    0.0235991097,    0.0000000000,   -0.0445829795,    0.0000000000,   -0.0226138881,    0.0000000000,   -0.0511778794,    0.0000000000,   -0.0227283649,    0.0000000000,    0.0294176185,    0.0000000000,   -0.0639272309,    0.0000000000,   -0.0174921909,    0.0000000000,    0.0183914399,    0.0000000000,    0.0280844219,    0.0000000000,    0.0013767514,    0.0000000000,    0.0022150894,    0.0000000000,    0.0257187872,    0.0000000000,    0.0255019020,    0.0000000000,   -0.0430488426,    0.0000000000,   -0.0505378344,    0.0000000000,    0.0229331771,    0.0000000000,    0.0318922671,    0.0000000000,   -0.0643779751,    0.0000000000 ]
  - [   -0.1534774232,   -0.0000000000,    0.0419151473,   -0.0000000000,    0.0036262888,   -0.0000000000,    0.2161349424,   -0.0000000000,    0.0042702984,    0.0000000000,   -0.0055455126,    0.0000000000,    0.0034167688,    0.0000000000,   -0.0014407934,    0.0000000000,    0.0049118883,    0.0000000000,   -0.0033760599,    0.0000000000,   -0.0003703651,    0.0000000000,   -0.0016773366,    0.0000000000,   -0.0503450948,    0.0000000000,    0.0072983399,    0.0000000000,    0.0183707793,    0.0000000000,    0.0325065681,    0.0000000000,   -0.0110489173,    0.0000000000,    0.0001449807,    0.0000000000,    0.0209137648,    0.0000000000,   -0.0051811270,    0.0000000000,    0.0025850567,    0.0000000000,   -0.0202537822,    0.0000000000,    0.0007149701,    0.0000000000,   -0.0083040960,    0.0000000000,    0.0006771910,    0.0000000000,    0.0010004764,    0.0000000000,   -0.0007270355,    0.0000000000,    0.0009521299,    0.0000000000,   -0.0001868583,    0.0000000000,   -0.0006671093,    0.0000000000,   -0.1310127371,    0.0000000000,   -0.1785101917,    0.0000000000,    0.0374446254,    0.0000000000,    0.0692713674,    0.0000000000,   -0.0918423384,    0.0000000000,   -0.0093510859,    0.0000000000,   -0.0007507714,    0.0000000000,    0.0010243890,    0.0000000000,   -0.0002250482,    0.0000000000,    0.0006398031,    0.0000000000,    0.0014169749,    0.0000000000,   -0.0014050890,    0.0000000000,   -0.2293684963,    0.0000000000,    0.1035529569,    0.0000000000,   -0.0461980655,    0.0000000000,    0.0940347009,    0.0000000000,    0.0213957452,    0.0000000000,    0.0041779699,    0.0000000000 ]
  - [   -0.0419151473,   -0.0000000000,   -0.1329141989,   -0.0000000000,   -0.0178996447,   -0.0000000000,    0.0042702984,   -0.0000000000,    0.2200206868,   -0.0000000000,    0.0279769997,    0.0000000000,    0.0014407934,    0.0000000000,    0.0110341608,    0.0000000000,   -0.0245620723,    0.0000000000,   -0.0003703651,    0.0000000000,   -0.0023875541,    0.0000000000,    0.0042806272,    0.0000000000,    0.0045557056,    0.0000000000,   -0.0918520883,    0.0000000000,   -0.1377522586,    0.0000000000,    0.0115689621,    0.0000000000,    0.0355037022,    0.0000000000,   -0.0161057173,    0.0000000000,    0.0063042713,    0.0000000000,    0.0204155276,    0.0000000000,   -0.0017574485,    0.0000000000,   -0.0027966186,    0.0000000000,   -0.0261160197,    0.0000000000,    0.0539563704,    0.0000000000,   -0.0006899867,    0.0000000000,   -0.0006852459,    0.0000000000,    0.0034688338,    0.0000000000,    0.0024439928,    0.0000000000,   -0.0051759755,    0.0000000000,    0.0044475055,    0.0000000000,   -0.1156937324,    0.0000000000,   -0.2042880019,    0.0000000000,    0.0458333402,    0.0000000000,    0.0026709377,    0.0000000000,    0.0379822148,    0.0000000000,    0.0193145114,    0.0000000000,   -0.0009830718,    0.0000000000,   -0.0015968654,    0.0000000000,    0.0023083469,    0.0000000000,   -0.0033681671,    0.0000000000,   -0.0036090605,    0.0000000000,    0.0038529876,    0.0000000000,    0.1564202663,    0.0000000000,   -0.0828038584,    0.0000000000,    0.0323875177,    0.0000000000,    0.0635294488,    0.0000000000,   -0.0026861178,    0.0000000000,    0.0247065436,    0.0000000000 ]
  - [    0.0036262888,   -0.0000000000,    0.0178996447,   -0.0000000000,    0.0126557963,   -0.0000000000,   -0.0055455126,   -0.0000000000,    0.0279769997,   -0.0000000000,    0.2763091028,   -0.0000000000,    0.0049118883,    0.0000000000,    0.0245620723,    0.0000000000,   -0.1075146427,    0.0000000000,   -0.0016773366,    0.0000000000,    0.0042806272,    0.0000000000,   -0.0121804972,    0.0000000000,    0.0206913463,    0.0000000000,   -0.1691583106,    0.0000000000,   -0.5584997794,    0.0000000000,    0.0009821684,    0.0000000000,    0.0006004592,    0.0000000000,    0.0043696102,    0.0000000000,    0.0005842036,    0.0000000000,    0.0038692117,    0.0000000000,    0.0010847545,    0.0000000000,   -0.0066534229,    0.0000000000,   -0.0494442787,    0.0000000000,    0.1039703096,    0.0000000000,    0.0003908964,    0.0000000000,   -0.0042085760,    0.0000000000,    0.0235991097,    0.0000000000,    0.0143120888,    0.0000000000,   -0.0191169385,    0.0000000000,    0.0281945930,    0.0000000000,   -0.0227283649,    0.0000000000,   -0.0294176185,    0.0000000000,   -0.0639272309,    0.0000000000,   -0.0445829795,    0.0000000000,    0.0226138881,    0.0000000000,   -0.0511778794,    0.0000000000,    0.0013767514,    0.0000000000,   -0.0022150894,    0.0000000000,    0.0257187872,    0.0000000000,   -0.0174921909,    0.0000000000,   -0.0183914399,    0.0000000000,    0.0280844219,    0.0000000000,    0.0229331771,    0.0000000000,   -0.0318922671,    0.0000000000,   -0.0643779751,    0.0000000000,    0.0255019020,    0.0000000000,    0.0430488426,    0.0000000000,   -0.0505378344,    0.0000000000 ]
  - [   -0.0033760599,   -0.0000000000,    0.0003703651,   -0.0000000000,   -0.0016773366,   -0.0000000000,    0.0034167688,   -0.0000000000,    0.0014407934,   -0.0000000000,    0.0049118883,   -0.0000000000,    0.2161349424,   -0.0000000000,   -0.0042702984,    0.0000000000,   -0.0055455126,    0.0000000000,   -0.1534774232,    0.0000000000,   -0.0419151473,    0.0000000000,    0.0036262888,    0.0000000000,   -0.0202537822,    0.0000000000,   -0.0007149701,    0.0000000000,   -0.0083040960,    0.0000000000,    0.0209137648,    0.0000000000,    0.0051811270,    0.0000000000,    0.0025850567,    0.0000000000,    0.0325065681,    0.0000000000,    0.0110489173,    0.0000000000,    0.0001449807,    0.0000000000,   -0.0503450948,    0.0000000000,   -0.0072983399,    0.0000000000,    0.0183707793,    0.0000000000,    0.0692713674,    0.0000000000,    0.0918423384,    0.0000000000,   -0.0093510859,    0.0000000000,   -0.1310127371,    0.0000000000,    0.1785101917,    0.0000000000,    0.0374446254,    0.0000000000,    0.0009521299,    0.0000000000,    0.0001868583,    0.0000000000,   -0.0006671093,    0.0000000000,    0.0006771910,    0.0000000000,   -0.0010004764,    0.0000000000,   -0.0007270355,    0.0000000000,    0.0940347009,    0.0000000000,   -0.0213957452,    0.0000000000,    0.0041779699,    0.0000000000,   -0.2293684963,    0.0000000000,   -0.1035529569,    0.0000000000,   -0.0461980655,    0.0000000000,    0.0006398031,    0.0000000000,   -0.0014169749,    0.0000000000,   -0.0014050890,    0.0000000000,   -0.0007507714,    0.0000000000,   -0.0010243890,    0.0000000000,   -0.0002250482,    0.0000000000 ]
  - [    0.0003703651,   -0.0000000000,   -0.0023875541,   -0.0000000000,   -0.0042806272,   -0.0000000000,   -0.0014407934,   -0.0000000000,    0.0110341608,   -0.0000000000,    0.0245620723,   -0.0000000000,   -0.0042702984,   -0.0000000000,    0.2200206868,   -0.0000000000,   -0.0279769997,    0.0000000000,    0.0419151473,    0.0000000000,   -0.1329141989,    0.0000000000,    0.0178996447,    0.0000000000,    0.0027966186,    0.0000000000,   -0.0261160197,    0.0000000000,   -0.0539563704,    0.0000000000,   -0.0063042713,    0.0000000000,    0.0204155276,    0.0000000000,    0.0017574485,    0.0000000000,   -0.0115689621,    0.0000000000,    0.0355037022,    0.0000000000,    0.0161057173,    0.0000000000,   -0.0045557056,    0.0000000000,   -0.0918520883,    0.0000000000,    0.1377522586,    0.0000000000,   -0.0026709377,    0.0000000000,    0.0379822148,    0.0000000000,   -0.0193145114,    0.0000000000,    0.1156937324,    0.0000000000,   -0.2042880019,    0.0000000000,   -0.0458333402,    0.0000000000,   -0.0024439928,    0.0000000000,   -0.0051759755,    0.0000000000,   -0.0044475055,    0.0000000000,    0.0006899867,    0.0000000000,   -0.0006852459,    0.0000000000,   -0.0034688338,    0.0000000000,   -0.0635294488,    0.0000000000,   -0.0026861178,    0.0000000000,   -0.0247065436,    0.0000000000,   -0.1564202663,    0.0000000000,   -0.0828038584,    0.0000000000,   -0.0323875177,    0.0000000000,    0.0033681671,    0.0000000000,   -0.0036090605,    0.0000000000,   -0.0038529876,    0.0000000000,    0.0009830718,    0.0000000000,   -0.0015968654,    0.0000000000,   -0.0023083469,    0.0000000000 ]
  - [   -0.0016773366,   -0.0000000000,   -0.0042806272,   -0.0000000000,   -0.0121804972,   -0.0000000000,    0.0049118883,   -0.0000000000,   -0.0245620723,   -0.0000000000,   -0.1075146427,   -0.0000000000,   -0.0055455126,   -0.0000000000,   -0.0279769997,   -0.0000000000,    0.2763091028,   -0.0000000000,    0.0036262888,    0.0000000000,   -0.0178996447,    0.0000000000,    0.0126557963,    0.0000000000,   -0.0066534229,    0.0000000000,    0.0494442787,    0.0000000000,    0.1039703096,    0.0000000000,    0.0005842036,    0.0000000000,   -0.0038692117,    0.0000000000,    0.0010847545,    0.0000000000,    0.0009821684,    0.0000000000,   -0.0006004592,    0.0000000000,    0.0043696102,    0.0000000000,    0.0206913463,    0.0000000000,    0.1691583106,    0.0000000000,   -0.5584997794,    0.0000000000,   -0.0445829795,    0.0000000000,   -0.0226138881,    0.0000000000,   -0.0511778794,    0.0000000000,   -0.0227283649,    0.0000000000,    0.0294176185,    0.0000000000,   -0.0639272309,    0.0000000000,    0.0143120888,    0.0000000000,    0.0191169385,    0.0000000000,    0.0281945930,    0.0000000000,    0.0003908964,    0.0000000000,    0.0042085760,    0.0000000000,    0.0235991097,    0.0000000000,    0.0255019020,    0.0000000000,   -0.0430488426,    0.0000000000,   -0.0505378344,    0.0000000000,    0.0229331771,    0.0000000000,    0.0318922671,    0.0000000000,   -0.0643779751,    0.0000000000,   -0.0174921909,    0.0000000000,    0.0183914399,    0.0000000000,    0.0280844219,    0.0000000000,    0.0013767514,    0.0000000000,    0.0022150894,    0.0000000000,    0.0257187872,    0.0000000000 ]
  - [    0.0034167688,   -0.0000000000,   -0.0014407934,   -0.0000000000,    0.0049118883,   -0.0000000000,   -0.0033760599,   -0.0000000000,   -0.0003703651,   -0.0000000000,   -0.0016773366,   -0.0000000000,   -0.1534774232,   -0.0000000000,    0.0419151473,   -0.0000000000,    0.0036262888,   -0.0000000000,    0.2161349424,   -0.0000000000,    0.0042702984,    0.0000000000,   -0.0055455126,    0.0000000000,    0.0209137648,    0.0000000000,   -0.0051811270,    0.0000000000,    0.0025850567,    0.0000000000,   -0.0202537822,    0.0000000000,    0.0007149701,    0.0000000000,   -0.0083040960,    0.0000000000,   -0.0503450948,    0.0000000000,    0.0072983399,    0.0000000000,    0.0183707793,    0.0000000000,    0.0325065681,    0.0000000000,   -0.0110489173,    0.0000000000,    0.0001449807,    0.0000000000,   -0.1310127371,    0.0000000000,   -0.1785101917,    0.0000000000,    0.0374446254,    0.0000000000,    0.0692713674,    0.0000000000,   -0.0918423384,    0.0000000000,   -0.0093510859,    0.0000000000,    0.0006771910,    0.0000000000,    0.0010004764,    0.0000000000,   -0.0007270355,    0.0000000000,    0.0009521299,    0.0000000000,   -0.0001868583,    0.0000000000,   -0.0006671093,    0.0000000000,   -0.2293684963,    0.0000000000,    0.1035529569,    0.0000000000,   -0.0461980655,    0.0000000000,    0.0940347009,    0.0000000000,    0.0213957452,    0.0000000000,    0.0041779699,    0.0000000000,   -0.0007507714,    0.0000000000,    0.0010243890,    0.0000000000,   -0.0002250482,    0.0000000000,    0.0006398031,    0.0000000000,    0.0014169749,    0.0000000000,   -0.0014050890,    0.0000000000 ]
  - [    0.0014407934,   -0.0000000000,    0.0110341608,   -0.0000000000,   -0.0245620723,   -0.0000000000,   -0.0003703651,   -0.0000000000,   -0.0023875541,   -0.0000000000,    0.0042806272,   -0.0000000000,   -0.0419151473,   -0.0000000000,   -0.1329141989,   -0.0000000000,   -0.0178996447,   -0.0000000000,    0.0042702984,   -0.0000000000,    0.2200206868,   -0.0000000000,    0.0279769997,    0.0000000000,    0.0063042713,    0.0000000000,    0.0204155276,    0.0000000000,   -0.0017574485,    0.0000000000,   -0.0027966186,    0.0000000000,   -0.0261160197,    0.0000000000,    0.0539563704,    0.0000000000,    0.0045557056,    0.0000000000,   -0.0918520883,    0.0000000000,   -0.1377522586,    0.0000000000,    0.0115689621,    0.0000000000,    0.0355037022,    0.0000000000,   -0.0161057173,    0.0000000000,   -0.1156937324,    0.0000000000,   -0.2042880019,    0.0000000000,    0.0458333402,    0.0000000000,    0.0026709377,    0.0000000000,    0.0379822148,    0.0000000000,    0.0193145114,    0.0000000000,   -0.0006899867,    0.0000000000,   -0.0006852459,    0.0000000000,    0.0034688338,    0.0000000000,    0.0024439928,    0.0000000000,   -0.0051759755,    0.0000000000,    0.0044475055,    0.0000000000,    0.1564202663,    0.0000000000,   -0.0828038584,    0.0000000000,    0.0323875177,    0.0000000000,    0.0635294488,    0.0000000000,   -0.0026861178,    0.0000000000,    0.0247065436,    0.0000000000,   -0.0009830718,    0.0000000000,   -0.0015968654,    0.0000000000,    0.0023083469,    0.0000000000,   -0.0033681671,    0.0000000000,   -0.0036090605,    0.0000000000,    0.0038529876,    0.0000000000 ]
  - [    0.0049118883,   -0.0000000000,    0.0245620723,   -0.0000000000,   -0.1075146427,   -0.0000000000,   -0.0016773366,   -0.0000000000,    0.0042806272,   -0.0000000000,   -0.0121804972,   -0.0000000000,    0.0036262888,   -0.0000000000,    0.0178996447,   -0.0000000000,    0.0126557963,   -0.0000000000,   -0.0055455126,   -0.0000000000,    0.0279769997,   -0.0000000000,    0.2763091028,   -0.0000000000,    0.0005842036,    0.0000000000,    0.0038692117,    0.0000000000,    0.0010847545,    0.0000000000,   -0.0066534229,    0.0000000000,   -0.0494442787,    0.0000000000,    0.1039703096,    0.0000000000,    0.0206913463,    0.0000000000,   -0.1691583106,    0.0000000000,   -0.5584997794,    0.0000000000,    0.0009821684,    0.0000000000,    0.0006004592,    0.0000000000,    0.0043696102,    0.0000000000,   -0.0227283649,    0.0000000000,   -0.0294176185,    0.0000000000,   -0.0639272309,    0.0000000000,   -0.0445829795,    0.0000000000,    0.0226138881,    0.0000000000,   -0.0511778794,    0.0000000000,    0.0003908964,    0.0000000000,   -0.0042085760,    0.0000000000,    0.0235991097,    0.0000000000,    0.0143120888,    0.0000000000,   -0.0191169385,    0.0000000000,    0.0281945930,    0.0000000000,    0.0229331771,    0.0000000000,   -0.0318922671,    0.0000000000,   -0.0643779751,    0.0000000000,    0.0255019020,    0.0000000000,    0.0430488426,    0.0000000000,   -0.0505378344,    0.0000000000,    0.0013767514,    0.0000000000,   -0.0022150894,    0.0000000000,    0.0257187872,    0.0000000000,   -0.0174921909,    0.0000000000,   -0.0183914399,    0.0000000000,    0.0280844219,    0.0000000000 ]
  - [    0.0325065681,   -0.0000000000,   -0.0115689621,   -0.0000000000,    0.0009821684,   -0.0000000000,   -0.0503450948,   -0.0000000000,    0.0045557056,   -0.0000000000,    0.0206913463,   -0.0000000000,   -0.0202537822,   -0.0000000000,    0.0027966186,   -0.0000000000,   -0.0066534229,   -0.0000000000,    0.0209137648,   -0.0000000000,    0.0063042713,   -0.0000000000,    0.0005842036,   -0.0000000000,    0.3530031536,   -0.0000000000,   -0.0208911264,    0.0000000000,   -0.0911485906,    0.0000000000,   -0.0193242322,    0.0000000000,    0.0047549710,    0.0000000000,    0.0063292322,    0.0000000000,   -0.0074935541,    0.0000000000,   -0.0037709020,    0.0000000000,   -0.0086136657,    0.0000000000,    0.0011379724,    0.0000000000,   -0.0019335555,    0.0000000000,    0.0231124118,    0.0000000000,   -0.0556438059,    0.0000000000,   -0.0698912714,    0.0000000000,    0.0413493593,    0.0000000000,   -0.0165999353,    0.0000000000,    0.0203819231,    0.0000000000,    0.0455253298,    0.0000000000,   -0.0141133747,    0.0000000000,   -0.0511417750,    0.0000000000,   -0.0705223857,    0.0000000000,   -0.0429655418,    0.0000000000,    0.0419663190,    0.0000000000,   -0.0571569275,    0.0000000000,   -0.0294167289,    0.0000000000,    0.0476858049,    0.0000000000,   -0.0253380475,    0.0000000000,   -0.0215011188,    0.0000000000,   -0.0237147981,    0.0000000000,   -0.0526178282,    0.0000000000,   -0.0543032318,    0.0000000000,    0.0822670319,    0.0000000000,    0.0887956235,    0.0000000000,   -0.0349817753,    0.0000000000,   -0.0329973541,    0.0000000000,    0.0470062101,    0.0000000000 ]
  - [    0.0110489173,   -0.0000000000,    0.0355037022,   -0.0000000000,   -0.0006004592,   -0.0000000000,    0.0072983399,   -0.0000000000,   -0.0918520883,   -0.0000000000,   -0.1691583106,   -0.0000000000,   -0.0007149701,   -0.0000000000,   -0.0261160197,   -0.0000000000,    0.0494442787,   -0.0000000000,   -0.0051811270,   -0.0000000000,    0.0204155276,   -0.0000000000,    0.0038692117,   -0.0000000000,   -0.0208911264,   -0.0000000000,    0.5280798624,   -0.0000000000,    0.5671569898,    0.0000000000,   -0.0047549710,    0.0000000000,   -0.0218739571,    0.0000000000,   -0.0080777493,    0.0000000000,   -0.0037709020,    0.0000000000,   -0.0235962505,    0.0000000000,    0.0058733833,    0.0000000000,    0.0019335555,    0.0000000000,    0.0021176303,    0.0000000000,   -0.0830348501,    0.0000000000,   -0.0406354884,    0.0000000000,   -0.0334474077,    0.0000000000,    0.0280404432,    0.0000000000,    0.0344831969,    0.0000000000,   -0.0127871959,    0.0000000000,   -0.0551692315,    0.0000000000,   -0.0833845074,    0.0000000000,   -0.0891294659,    0.0000000000,   -0.0880194745,    0.0000000000,    0.0233139858,    0.0000000000,   -0.0061060644,    0.0000000000,    0.0360810377,    0.0000000000,    0.0490508819,    0.0000000000,   -0.0612277490,    0.0000000000,    0.0372146129,    0.0000000000,   -0.0229703820,    0.0000000000,   -0.0044220110,    0.0000000000,   -0.0382798677,    0.0000000000,    0.0734861835,    0.0000000000,   -0.0537474919,    0.0000000000,   -0.0639490851,    0.0000000000,   -0.0479852346,    0.0000000000,   -0.0133246806,    0.0000000000,    0.0570713908,    0.0000000000 ]
  - [    0.0001449807,   -0.0000000000,    0.0161057173,   -0.0000000000,    0.0043696102,   -0.0000000000,    0.0183707793,   -0.0000000000,   -0.1377522586,   -0.0000000000,   -0.5584997794,   -0.0000000000,   -0.0083040960,   -0.0000000000,   -0.0539563704,   -0.0000000000,    0.1039703096,   -0.0000000000,    0.0025850567,   -0.0000000000,   -0.0017574485,   -0.0000000000,    0.0010847545,   -0.0000000000,   -0.0911485906,   -0.0000000000,    0.5671569898,   -0.0000000000,    2.7035841798,   -0.0000000000,    0.0063292322,    0.0000000000,    0.0080777493,    0.0000000000,   -0.1838172666,    0.0000000000,   -0.0086136657,    0.0000000000,    0.0058733833,    0.0000000000,    0.1625802014,    0.0000000000,    0.0231124118,    0.0000000000,    0.0830348501,    0.0000000000,   -0.6180960665,    0.0000000000,    0.1050744436,    0.0000000000,    0.1084448448,    0.0000000000,   -0.0609720889,    0.0000000000,    0.0862266981,    0.0000000000,   -0.0730951114,    0.0000000000,   -0.1082584069,    0.0000000000,   -0.1505664066,    0.0000000000,   -0.1781870037,    0.0000000000,   -0.0270033998,    0.0000000000,   -0.1040317706,    0.0000000000,    0.0713016823,    0.0000000000,   -0.0702932521,    0.0000000000,   -0.0934940007,    0.0000000000,    0.1203917671,    0.0000000000,   -0.0647348159,    0.0000000000,   -0.0934575188,    0.0000000000,   -0.0612975698,    0.0000000000,   -0.1122907509,    0.0000000000,    0.1706014378,    0.0000000000,   -0.1449193463,    0.0000000000,   -0.0196497595,    0.0000000000,    0.1074012463,    0.0000000000,    0.0953304729,    0.0000000000,   -0.0786609032,    0.0000000000 ]
  - [   -0.0503450948,   -0.0000000000,   -0.0045557056,   -0.0000000000,    0.0206913463,   -0.0000000000,    0.0325065681,   -0.0000000000,    0.0115689621,   -0.0000000000,    0.0009821684,   -0.0000000000,    0.0209137648,   -0.0000000000,   -0.0063042713,   -0.0000000000,    0.0005842036,   -0.0000000000,   -0.0202537822,   -0.0000000000,   -0.0027966186,   -0.0000000000,   -0.0066534229,   -0.0000000000,   -0.0193242322,   -0.0000000000,   -0.0047549710,   -0.0000000000,    0.0063292322,   -0.0000000000,    0.3530031536,   -0.0000000000,    0.0208911264,    0.0000000000,   -0.0911485906,    0.0000000000,    0.0011379724,    0.0000000000,    0.0019335555,    0.0000000000,    0.0231124118,    0.0000000000,   -0.0074935541,    0.0000000000,    0.0037709020,    0.0000000000,   -0.0086136657,    0.0000000000,   -0.0165999353,    0.0000000000,   -0.0203819231,    0.0000000000,    0.0455253298,    0.0000000000,   -0.0556438059,    0.0000000000,    0.0698912714,    0.0000000000,    0.0413493593,    0.0000000000,   -0.0429655418,    0.0000000000,   -0.0419663190,    0.0000000000,   -0.0571569275,    0.0000000000,   -0.0141133747,    0.0000000000,    0.0511417750,    0.0000000000,   -0.0705223857,    0.0000000000,   -0.0215011188,    0.0000000000,    0.0237147981,    0.0000000000,   -0.0526178282,    0.0000000000,   -0.0294167289,    0.0000000000,   -0.0476858049,    0.0000000000,   -0.0253380475,    0.0000000000,   -0.0349817753,    0.0000000000,    0.0329973541,    0.0000000000,    0.0470062101,    0.0000000000,   -0.0543032318,    0.0000000000,   -0.0822670319,    0.0000000000,    0.0887956235,    0.0000000000 ]
  - [   -0.0072983399,   -0.0000000000,   -0.0918520883,   -0.0000000000,    0.1691583106,   -0.0000000000,   -0.0110489173,   -0.0000000000,    0.0355037022,   -0.0000000000,    0.0006004592,   -0.0000000000,    0.0051811270,   -0.0000000000,    0.0204155276,   -0.0000000000,   -0.0038692117,   -0.0000000000,    0.0007149701,   -0.0000000000,   -0.0261160197,   -0.0000000000,   -0.0494442787,   -0.0000000000,    0.0047549710,   -0.0000000000,   -0.0218739571,   -0.0000000000,    0.0080777493,   -0.0000000000,    0.0208911264,   -0.0000000000,    0.5280798624,   -0.0000000000,   -0.5671569898,    0.0000000000,   -0.0019335555,    0.0000000000,    0.0021176303,    0.0000000000,    0.0830348501,    0.0000000000,    0.0037709020,    0.0000000000,   -0.0235962505,    0.0000000000,   -0.0058733833,    0.0000000000,   -0.0344831969,    0.0000000000,   -0.0127871959,    0.0000000000,    0.0551692315,    0.0000000000,    0.0406354884,    0.0000000000,   -0.0334474077,    0.0000000000,   -0.0280404432,    0.0000000000,   -0.0233139858,    0.0000000000,   -0.0061060644,    0.0000000000,   -0.0360810377,    0.0000000000,    0.0833845074,    0.0000000000,   -0.0891294659,    0.0000000000,    0.0880194745,    0.0000000000,    0.0229703820,    0.0000000000,   -0.0044220110,    0.0000000000,    0.0382798677,    0.0000000000,   -0.0490508819,    0.0000000000,   -0.0612277490,    0.0000000000,   -0.0372146129,    0.0000000000,    0.0479852346,    0.0000000000,   -0.0133246806,    0.0000000000,   -0.0570713908,    0.0000000000,   -0.0734861835,    0.0000000000,   -0.0537474919,    0.0000000000,    0.0639490851,    0.0000000000 ]
  - [    0.0183707793,   -0.0000000000,    0.1377522586,   -0.0000000000,   -0.5584997794,   -0.0000000000,    0.0001449807,   -0.0000000000,   -0.0161057173,   -0.0000000000,    0.0043696102,   -0.0000000000,    0.0025850567,   -0.0000000000,    0.0017574485,   -0.0000000000,    0.0010847545,   -0.0000000000,   -0.0083040960,   -0.0000000000,    0.0539563704,   -0.0000000000,    0.1039703096,   -0.0000000000,    0.0063292322,   -0.0000000000,   -0.0080777493,   -0.0000000000,   -0.1838172666,   -0.0000000000,   -0.0911485906,   -0.0000000000,   -0.5671569898,   -0.0000000000,    2.7035841798,   -0.0000000000,    0.0231124118,    0.0000000000,   -0.0830348501,    0.0000000000,   -0.6180960665,    0.0000000000,   -0.0086136657,    0.0000000000,   -0.0058733833,    0.0000000000,    0.1625802014,    0.0000000000,    0.0862266981,    0.0000000000,    0.0730951114,    0.0000000000,   -0.1082584069,    0.0000000000,    0.1050744436,    0.0000000000,   -0.1084448448,    0.0000000000,   -0.0609720889,    0.0000000000,   -0.1040317706,    0.0000000000,   -0.0713016823,    0.0000000000,   -0.0702932521,    0.0000000000,   -0.1505664066,    0.0000000000,    0.1781870037,    0.0000000000,   -0.0270033998,    0.0000000000,   -0.0934575188,    0.0000000000,    0.0612975698,    0.0000000000,   -0.1122907509,    0.0000000000,   -0.0934940007,    0.0000000000,   -0.1203917671,    0.0000000000,   -0.0647348159,    0.0000000000,    0.1074012463,    0.0000000000,   -0.0953304729,    0.0000000000,   -0.0786609032,    0.0000000000,    0.1706014378,    0.0000000000,    0.1449193463,    0.0000000000,   -0.0196497595,    0.0000000000 ]