<?xml version="1.0" encoding="ISO-8859-1"?>
<modeling>
 <generator>
  <i name="program" type="string">vasp </i>
  <i name="version" type="string">5.3.3  </i>
  <i name="subversion" type="string">18Dez12 (build Feb 12 2015 12:36:41) complex                          parallel </i>
  <i name="platform" type="string">LinuxIFC </i>
  <i name="date" type="string">2017 07 17 </i>
  <i name="time" type="string">13:37:00 </i>
 </generator>
 <incar>
  <i type="string" name="PREC">accurate</i>
  <i type="int" name="NSIM">     4</i>
  <i type="logical" name="ADDGRID"> T  </i>
  <i type="int" name="NELM">    80</i>
  <i type="int" name="NELMIN">     6</i>
  <i type="int" name="IBRION">     8</i>
  <i name="EDIFF">      0.00000000</i>
  <i type="int" name="ISIF">     3</i>
  <i name="ENCUT">    550.00000000</i>
  <i type="logical" name="LREAL"> F  </i>
  <i type="logical" name="LPLANE"> T  </i>
  <i type="int" name="ISMEAR">    -5</i>
  <i type="int" name="LMAXMIX">     4</i>
  <i type="logical" name="LWAVE"> F  </i>
  <i type="logical" name="LSCALU"> F  </i>
  <i type="int" name="NELM">    80</i>
  <i type="string" name="GGA"> PS</i>
  <i type="logical" name="LEPSILON"> T  </i>
  <i type="logical" name="LRPA"> F  </i>
 </incar>
 <kpoints>
  <generation param="Monkhorst-Pack">
   <v type="int" name="divisions">       6        6        4 </v>
   <v name="usershift">      0.00000000       0.00000000       0.00000000 </v>
   <v name="genvec1">      0.16666667       0.00000000       0.00000000 </v>
   <v name="genvec2">     -0.00000000       0.16666667       0.00000000 </v>
   <v name="genvec3">      0.00000000       0.00000000       0.25000000 </v>
   <v name="shift">      0.50000000       0.50000000       0.50000000 </v>
  </generation>
  <varray name="kpointlist" >
   <v>       0.08333333       0.08333333       0.12500000 </v>
   <v>       0.25000000       0.08333333       0.12500000 </v>
   <v>       0.41666667       0.08333333       0.12500000 </v>
   <v>      -0.41666667       0.08333333       0.12500000 </v>
   <v>      -0.25000000       0.08333333       0.12500000 </v>
   <v>      -0.08333333       0.08333333       0.12500000 </v>
   <v>       0.08333333       0.25000000       0.12500000 </v>
   <v>       0.25000000       0.25000000       0.12500000 </v>
   <v>       0.41666667       0.25000000       0.12500000 </v>
   <v>      -0.41666667       0.25000000       0.12500000 </v>
   <v>      -0.25000000       0.25000000       0.12500000 </v>
   <v>      -0.08333333       0.25000000       0.12500000 </v>
   <v>       0.08333333       0.41666667       0.12500000 </v>
   <v>       0.25000000       0.41666667       0.12500000 </v>
   <v>       0.41666667       0.41666667       0.12500000 </v>
   <v>      -0.41666667       0.41666667       0.12500000 </v>
   <v>      -0.25000000       0.41666667       0.12500000 </v>
   <v>      -0.08333333       0.41666667       0.12500000 </v>
   <v>       0.08333333       0.08333333       0.37500000 </v>
   <v>       0.25000000       0.08333333       0.37500000 </v>
   <v>       0.41666667       0.08333333       0.37500000 </v>
   <v>      -0.41666667       0.08333333       0.37500000 </v>
   <v>      -0.25000000       0.08333333       0.37500000 </v>
   <v>      -0.08333333       0.08333333       0.37500000 </v>
   <v>       0.08333333       0.25000000       0.37500000 </v>
   <v>       0.25000000       0.25000000       0.37500000 </v>
   <v>       0.41666667       0.25000000       0.37500000 </v>
   <v>      -0.41666667       0.25000000       0.37500000 </v>
   <v>      -0.25000000       0.25000000       0.37500000 </v>
   <v>      -0.08333333       0.25000000       0.37500000 </v>
   <v>       0.08333333       0.41666667       0.37500000 </v>
   <v>       0.25000000       0.41666667       0.37500000 </v>
   <v>       0.41666667       0.41666667       0.37500000 </v>
   <v>      -0.41666667       0.41666667       0.37500000 </v>
   <v>      -0.25000000       0.41666667       0.37500000 </v>
   <v>      -0.08333333       0.41666667       0.37500000 </v>
  </varray>
  <varray name="weights" >
   <v>       0.02777778 </v>
   <v>       0.02777778 </v>
   <v>       0.02777778 </v>
   <v>       0.02777778 </v>
   <v>       0.02777778 </v>
   <v>       0.02777778 </v>
   <v>       0.02777778 </v>
   <v>       0.02777778 </v>
   <v>       0.02777778 </v>
   <v>       0.02777778 </v>
   <v>       0.02777778 </v>
   <v>       0.02777778 </v>
   <v>       0.02777778 </v>
   <v>       0.02777778 </v>
   <v>       0.02777778 </v>
   <v>       0.02777778 </v>
   <v>       0.02777778 </v>
   <v>       0.02777778 </v>
   <v>       0.02777778 </v>
   <v>       0.02777778 </v>
   <v>       0.02777778 </v>
   <v>       0.02777778 </v>
   <v>       0.02777778 </v>
   <v>       0.02777778 </v>
   <v>       0.02777778 </v>
   <v>       0.02777778 </v>
   <v>       0.02777778 </v>
   <v>       0.02777778 </v>
   <v>       0.02777778 </v>
   <v>       0.02777778 </v>
   <v>       0.02777778 </v>
   <v>       0.02777778 </v>
   <v>       0.02777778 </v>
   <v>       0.02777778 </v>
   <v>       0.02777778 </v>
   <v>       0.02777778 </v>
  </varray>
  <varray name="tetrahedronlist"  type="int" >
   <v type="int" >        2        1        2        8       19 </v>
   <v type="int" >        2        1        7        8       19 </v>
   <v type="int" >        2        7        8       19       25 </v>
   <v type="int" >        2        2        8       19       20 </v>
   <v type="int" >        2        8       19       20       26 </v>
   <v type="int" >        2        8       19       25       26 </v>
   <v type="int" >        2        2        3        9       20 </v>
   <v type="int" >        2        2        8        9       20 </v>
   <v type="int" >        2        8        9       20       26 </v>
   <v type="int" >        2        3        9       20       21 </v>
   <v type="int" >        2        9       20       21       27 </v>
   <v type="int" >        2        9       20       26       27 </v>
   <v type="int" >        2        3        4       10       21 </v>
   <v type="int" >        2        3        9       10       21 </v>
   <v type="int" >        2        9       10       21       27 </v>
   <v type="int" >        2        4       10       21       22 </v>
   <v type="int" >        2       10       21       22       28 </v>
   <v type="int" >        2       10       21       27       28 </v>
   <v type="int" >        2        4        5       11       22 </v>
   <v type="int" >        2        4       10       11       22 </v>
   <v type="int" >        2       10       11       22       28 </v>
   <v type="int" >        2        5       11       22       23 </v>
   <v type="int" >        2       11       22       23       29 </v>
   <v type="int" >        2       11       22       28       29 </v>
   <v type="int" >        2        5        6       12       23 </v>
   <v type="int" >        2        5       11       12       23 </v>
   <v type="int" >        2       11       12       23       29 </v>
   <v type="int" >        2        6       12       23       24 </v>
   <v type="int" >        2       12       23       24       30 </v>
   <v type="int" >        2       12       23       29       30 </v>
   <v type="int" >        2        1        6        7       24 </v>
   <v type="int" >        2        6        7       12       24 </v>
   <v type="int" >        2        7       12       24       30 </v>
   <v type="int" >        2        1        7       19       24 </v>
   <v type="int" >        2        7       19       24       25 </v>
   <v type="int" >        2        7       24       25       30 </v>
   <v type="int" >        2        7        8       14       25 </v>
   <v type="int" >        2        7       13       14       25 </v>
   <v type="int" >        2       13       14       25       31 </v>
   <v type="int" >        2        8       14       25       26 </v>
   <v type="int" >        2       14       25       26       32 </v>
   <v type="int" >        2       14       25       31       32 </v>
   <v type="int" >        2        8        9       15       26 </v>
   <v type="int" >        2        8       14       15       26 </v>
   <v type="int" >        2       14       15       26       32 </v>
   <v type="int" >        2        9       15       26       27 </v>
   <v type="int" >        2       15       26       27       33 </v>
   <v type="int" >        2       15       26       32       33 </v>
   <v type="int" >        2        9       10       16       27 </v>
   <v type="int" >        2        9       15       16       27 </v>
   <v type="int" >        2       15       16       27       33 </v>
   <v type="int" >        2       10       16       27       28 </v>
   <v type="int" >        2       16       27       28       34 </v>
   <v type="int" >        2       16       27       33       34 </v>
   <v type="int" >        2       10       11       17       28 </v>
   <v type="int" >        2       10       16       17       28 </v>
   <v type="int" >        2       16       17       28       34 </v>
   <v type="int" >        2       11       17       28       29 </v>
   <v type="int" >        2       17       28       29       35 </v>
   <v type="int" >        2       17       28       34       35 </v>
   <v type="int" >        2       11       12       18       29 </v>
   <v type="int" >        2       11       17       18       29 </v>
   <v type="int" >        2       17       18       29       35 </v>
   <v type="int" >        2       12       18       29       30 </v>
   <v type="int" >        2       18       29       30       36 </v>
   <v type="int" >        2       18       29       35       36 </v>
   <v type="int" >        2        7       12       13       30 </v>
   <v type="int" >        2       12       13       18       30 </v>
   <v type="int" >        2       13       18       30       36 </v>
   <v type="int" >        2        7       13       25       30 </v>
   <v type="int" >        2       13       25       30       31 </v>
   <v type="int" >        2       13       30       31       36 </v>
   <v type="int" >        2       13       14       14       31 </v>
   <v type="int" >        2       13       13       14       31 </v>
   <v type="int" >        2       13       14       31       31 </v>
   <v type="int" >        2       14       14       31       32 </v>
   <v type="int" >        2       14       31       32       32 </v>
   <v type="int" >        2       14       31       31       32 </v>
   <v type="int" >        2       14       15       15       32 </v>
   <v type="int" >        2       14       14       15       32 </v>
   <v type="int" >        2       14       15       32       32 </v>
   <v type="int" >        2       15       15       32       33 </v>
   <v type="int" >        2       15       32       33       33 </v>
   <v type="int" >        2       15       32       32       33 </v>
   <v type="int" >        2       15       16       16       33 </v>
   <v type="int" >        2       15       15       16       33 </v>
   <v type="int" >        2       15       16       33       33 </v>
   <v type="int" >        2       16       16       33       34 </v>
   <v type="int" >        2       16       33       34       34 </v>
   <v type="int" >        2       16       33       33       34 </v>
   <v type="int" >        2       16       17       17       34 </v>
   <v type="int" >        2       16       16       17       34 </v>
   <v type="int" >        2       16       17       34       34 </v>
   <v type="int" >        2       17       17       34       35 </v>
   <v type="int" >        2       17       34       35       35 </v>
   <v type="int" >        2       17       34       34       35 </v>
   <v type="int" >        2       17       18       18       35 </v>
   <v type="int" >        2       17       17       18       35 </v>
   <v type="int" >        2       17       18       35       35 </v>
   <v type="int" >        2       18       18       35       36 </v>
   <v type="int" >        2       18       35       36       36 </v>
   <v type="int" >        2       18       35       35       36 </v>
   <v type="int" >        2       13       13       18       36 </v>
   <v type="int" >        2       13       18       18       36 </v>
   <v type="int" >        2       13       18       36       36 </v>
   <v type="int" >        2       13       13       31       36 </v>
   <v type="int" >        2       13       31       31       36 </v>
   <v type="int" >        2       13       31       36       36 </v>
   <v type="int" >        2        8       13       14       31 </v>
   <v type="int" >        2        7        8       13       31 </v>
   <v type="int" >        2        7        8       25       31 </v>
   <v type="int" >        2        8       14       31       32 </v>
   <v type="int" >        2        8       26       31       32 </v>
   <v type="int" >        2        8       25       26       31 </v>
   <v type="int" >        2        9       14       15       32 </v>
   <v type="int" >        2        8        9       14       32 </v>
   <v type="int" >        2        8        9       26       32 </v>
   <v type="int" >        2        9       15       32       33 </v>
   <v type="int" >        2        9       27       32       33 </v>
   <v type="int" >        2        9       26       27       32 </v>
   <v type="int" >        2       10       15       16       33 </v>
   <v type="int" >        2        9       10       15       33 </v>
   <v type="int" >        2        9       10       27       33 </v>
   <v type="int" >        2       10       16       33       34 </v>
   <v type="int" >        2       10       28       33       34 </v>
   <v type="int" >        2       10       27       28       33 </v>
   <v type="int" >        2       11       16       17       34 </v>
   <v type="int" >        2       10       11       16       34 </v>
   <v type="int" >        2       10       11       28       34 </v>
   <v type="int" >        2       11       17       34       35 </v>
   <v type="int" >        2       11       29       34       35 </v>
   <v type="int" >        2       11       28       29       34 </v>
   <v type="int" >        2       12       17       18       35 </v>
   <v type="int" >        2       11       12       17       35 </v>
   <v type="int" >        2       11       12       29       35 </v>
   <v type="int" >        2       12       18       35       36 </v>
   <v type="int" >        2       12       30       35       36 </v>
   <v type="int" >        2       12       29       30       35 </v>
   <v type="int" >        2        7       13       18       36 </v>
   <v type="int" >        2        7       12       18       36 </v>
   <v type="int" >        2        7       12       30       36 </v>
   <v type="int" >        2        7       13       31       36 </v>
   <v type="int" >        2        7       25       31       36 </v>
   <v type="int" >        2        7       25       30       36 </v>
   <v type="int" >        2        2        7        8       25 </v>
   <v type="int" >        2        1        2        7       25 </v>
   <v type="int" >        2        1        2       19       25 </v>
   <v type="int" >        2        2        8       25       26 </v>
   <v type="int" >        2        2       20       25       26 </v>
   <v type="int" >        2        2       19       20       25 </v>
   <v type="int" >        2        3        8        9       26 </v>
   <v type="int" >        2        2        3        8       26 </v>
   <v type="int" >        2        2        3       20       26 </v>
   <v type="int" >        2        3        9       26       27 </v>
   <v type="int" >        2        3       21       26       27 </v>
   <v type="int" >        2        3       20       21       26 </v>
   <v type="int" >        2        4        9       10       27 </v>
   <v type="int" >        2        3        4        9       27 </v>
   <v type="int" >        2        3        4       21       27 </v>
   <v type="int" >        2        4       10       27       28 </v>
   <v type="int" >        2        4       22       27       28 </v>
   <v type="int" >        2        4       21       22       27 </v>
   <v type="int" >        2        5       10       11       28 </v>
   <v type="int" >        2        4        5       10       28 </v>
   <v type="int" >        2        4        5       22       28 </v>
   <v type="int" >        2        5       11       28       29 </v>
   <v type="int" >        2        5       23       28       29 </v>
   <v type="int" >        2        5       22       23       28 </v>
   <v type="int" >        2        6       11       12       29 </v>
   <v type="int" >        2        5        6       11       29 </v>
   <v type="int" >        2        5        6       23       29 </v>
   <v type="int" >        2        6       12       29       30 </v>
   <v type="int" >        2        6       24       29       30 </v>
   <v type="int" >        2        6       23       24       29 </v>
   <v type="int" >        2        1        7       12       30 </v>
   <v type="int" >        2        1        6       12       30 </v>
   <v type="int" >        2        1        6       24       30 </v>
   <v type="int" >        2        1        7       25       30 </v>
   <v type="int" >        2        1       19       25       30 </v>
   <v type="int" >        2        1       19       24       30 </v>
   <v type="int" >        2        1        2        2       19 </v>
   <v type="int" >        2        1        1        2       19 </v>
   <v type="int" >        2        1        2       19       19 </v>
   <v type="int" >        2        2        2       19       20 </v>
   <v type="int" >        2        2       19       20       20 </v>
   <v type="int" >        2        2       19       19       20 </v>
   <v type="int" >        2        2        3        3       20 </v>
   <v type="int" >        2        2        2        3       20 </v>
   <v type="int" >        2        2        3       20       20 </v>
   <v type="int" >        2        3        3       20       21 </v>
   <v type="int" >        2        3       20       21       21 </v>
   <v type="int" >        2        3       20       20       21 </v>
   <v type="int" >        2        3        4        4       21 </v>
   <v type="int" >        2        3        3        4       21 </v>
   <v type="int" >        2        3        4       21       21 </v>
   <v type="int" >        2        4        4       21       22 </v>
   <v type="int" >        2        4       21       22       22 </v>
   <v type="int" >        2        4       21       21       22 </v>
   <v type="int" >        2        4        5        5       22 </v>
   <v type="int" >        2        4        4        5       22 </v>
   <v type="int" >        2        4        5       22       22 </v>
   <v type="int" >        2        5        5       22       23 </v>
   <v type="int" >        2        5       22       23       23 </v>
   <v type="int" >        2        5       22       22       23 </v>
   <v type="int" >        2        5        6        6       23 </v>
   <v type="int" >        2        5        5        6       23 </v>
   <v type="int" >        2        5        6       23       23 </v>
   <v type="int" >        2        6        6       23       24 </v>
   <v type="int" >        2        6       23       24       24 </v>
   <v type="int" >        2        6       23       23       24 </v>
   <v type="int" >        2        1        1        6       24 </v>
   <v type="int" >        2        1        6        6       24 </v>
   <v type="int" >        2        1        6       24       24 </v>
   <v type="int" >        2        1        1       19       24 </v>
   <v type="int" >        2        1       19       19       24 </v>
   <v type="int" >        2        1       19       24       24 </v>
   <v type="int" >        2       19       20       24       26 </v>
   <v type="int" >        2       19       24       25       26 </v>
   <v type="int" >        2       24       25       26       30 </v>
   <v type="int" >        2       20       23       24       26 </v>
   <v type="int" >        2       23       24       26       29 </v>
   <v type="int" >        2       24       26       29       30 </v>
   <v type="int" >        2       20       21       23       27 </v>
   <v type="int" >        2       20       23       26       27 </v>
   <v type="int" >        2       23       26       27       29 </v>
   <v type="int" >        2       21       22       23       27 </v>
   <v type="int" >        2       22       23       27       28 </v>
   <v type="int" >        2       23       27       28       29 </v>
   <v type="int" >        4       21       22       22       28 </v>
   <v type="int" >        4       21       22       27       28 </v>
   <v type="int" >        4       22       27       28       28 </v>
   <v type="int" >        2       21       22       23       29 </v>
   <v type="int" >        2       21       22       28       29 </v>
   <v type="int" >        2       21       27       28       29 </v>
   <v type="int" >        2       20       21       23       29 </v>
   <v type="int" >        2       20       21       26       29 </v>
   <v type="int" >        2       21       26       27       29 </v>
   <v type="int" >        2       20       23       24       30 </v>
   <v type="int" >        2       20       23       29       30 </v>
   <v type="int" >        2       20       26       29       30 </v>
   <v type="int" >        2       19       20       24       30 </v>
   <v type="int" >        2       19       20       25       30 </v>
   <v type="int" >        2       20       25       26       30 </v>
   <v type="int" >        4       19       19       24       25 </v>
   <v type="int" >        4       19       24       25       30 </v>
   <v type="int" >        4       19       25       25       30 </v>
   <v type="int" >        2       25       26       30       32 </v>
   <v type="int" >        2       25       30       31       32 </v>
   <v type="int" >        2       30       31       32       36 </v>
   <v type="int" >        2       26       29       30       32 </v>
   <v type="int" >        2       29       30       32       35 </v>
   <v type="int" >        2       30       32       35       36 </v>
   <v type="int" >        2       26       27       29       33 </v>
   <v type="int" >        2       26       29       32       33 </v>
   <v type="int" >        2       29       32       33       35 </v>
   <v type="int" >        2       27       28       29       33 </v>
   <v type="int" >        2       28       29       33       34 </v>
   <v type="int" >        2       29       33       34       35 </v>
   <v type="int" >        4       27       28       28       34 </v>
   <v type="int" >        4       27       28       33       34 </v>
   <v type="int" >        4       28       33       34       34 </v>
   <v type="int" >        2       27       28       29       35 </v>
   <v type="int" >        2       27       28       34       35 </v>
   <v type="int" >        2       27       33       34       35 </v>
   <v type="int" >        2       26       27       29       35 </v>
   <v type="int" >        2       26       27       32       35 </v>
   <v type="int" >        2       27       32       33       35 </v>
   <v type="int" >        2       26       29       30       36 </v>
   <v type="int" >        2       26       29       35       36 </v>
   <v type="int" >        2       26       32       35       36 </v>
   <v type="int" >        2       25       26       30       36 </v>
   <v type="int" >        2       25       26       31       36 </v>
   <v type="int" >        2       26       31       32       36 </v>
   <v type="int" >        4       25       25       30       31 </v>
   <v type="int" >        4       25       30       31       36 </v>
   <v type="int" >        4       25       31       31       36 </v>
   <v type="int" >        2       31       32       32       36 </v>
   <v type="int" >        2       31       31       32       36 </v>
   <v type="int" >        2       31       32       36       36 </v>
   <v type="int" >        2       32       32       35       36 </v>
   <v type="int" >        2       32       35       35       36 </v>
   <v type="int" >        2       32       35       36       36 </v>
   <v type="int" >        2       32       33       33       35 </v>
   <v type="int" >        2       32       32       33       35 </v>
   <v type="int" >        2       32       33       35       35 </v>
   <v type="int" >        2       33       33       34       35 </v>
   <v type="int" >        2       33       34       34       35 </v>
   <v type="int" >        2       33       34       35       35 </v>
   <v type="int" >        4       33       34       34       34 </v>
   <v type="int" >        2       33       33       34       34 </v>
   <v type="int" >        4       31       31       31       36 </v>
   <v type="int" >        2       31       31       36       36 </v>
   <v type="int" >        2       19       20       20       24 </v>
   <v type="int" >        2       19       19       20       24 </v>
   <v type="int" >        2       19       20       24       24 </v>
   <v type="int" >        2       20       20       23       24 </v>
   <v type="int" >        2       20       23       23       24 </v>
   <v type="int" >        2       20       23       24       24 </v>
   <v type="int" >        2       20       21       21       23 </v>
   <v type="int" >        2       20       20       21       23 </v>
   <v type="int" >        2       20       21       23       23 </v>
   <v type="int" >        2       21       21       22       23 </v>
   <v type="int" >        2       21       22       22       23 </v>
   <v type="int" >        2       21       22       23       23 </v>
   <v type="int" >        4       21       22       22       22 </v>
   <v type="int" >        2       21       21       22       22 </v>
   <v type="int" >        4       19       19       19       24 </v>
   <v type="int" >        2       19       19       24       24 </v>
   <v type="int" >        2        1        5        6       11 </v>
   <v type="int" >        2        1        6       11       12 </v>
   <v type="int" >        2        1        7       11       12 </v>
   <v type="int" >        2        1        2        5       11 </v>
   <v type="int" >        2        1        2        8       11 </v>
   <v type="int" >        2        1        7        8       11 </v>
   <v type="int" >        2        2        4        5       10 </v>
   <v type="int" >        2        2        5       10       11 </v>
   <v type="int" >        2        2        8       10       11 </v>
   <v type="int" >        2        2        3        4       10 </v>
   <v type="int" >        2        2        3        9       10 </v>
   <v type="int" >        2        2        8        9       10 </v>
   <v type="int" >        4        3        3        4        9 </v>
   <v type="int" >        4        3        4        9       10 </v>
   <v type="int" >        4        3        9        9       10 </v>
   <v type="int" >        2        2        3        4        8 </v>
   <v type="int" >        2        3        4        8        9 </v>
   <v type="int" >        2        4        8        9       10 </v>
   <v type="int" >        2        2        4        5        8 </v>
   <v type="int" >        2        4        5        8       11 </v>
   <v type="int" >        2        4        8       10       11 </v>
   <v type="int" >        2        1        2        5        7 </v>
   <v type="int" >        2        2        5        7        8 </v>
   <v type="int" >        2        5        7        8       11 </v>
   <v type="int" >        2        1        5        6        7 </v>
   <v type="int" >        2        5        6        7       12 </v>
   <v type="int" >        2        5        7       11       12 </v>
   <v type="int" >        4        1        6        6       12 </v>
   <v type="int" >        4        1        6        7       12 </v>
   <v type="int" >        4        6        7       12       12 </v>
   <v type="int" >        2        7       11       12       17 </v>
   <v type="int" >        2        7       12       17       18 </v>
   <v type="int" >        2        7       13       17       18 </v>
   <v type="int" >        2        7        8       11       17 </v>
   <v type="int" >        2        7        8       14       17 </v>
   <v type="int" >        2        7       13       14       17 </v>
   <v type="int" >        2        8       10       11       16 </v>
   <v type="int" >        2        8       11       16       17 </v>
   <v type="int" >        2        8       14       16       17 </v>
   <v type="int" >        2        8        9       10       16 </v>
   <v type="int" >        2        8        9       15       16 </v>
   <v type="int" >        2        8       14       15       16 </v>
   <v type="int" >        4        9        9       10       15 </v>
   <v type="int" >        4        9       10       15       16 </v>
   <v type="int" >        4        9       15       15       16 </v>
   <v type="int" >        2        8        9       10       14 </v>
   <v type="int" >        2        9       10       14       15 </v>
   <v type="int" >        2       10       14       15       16 </v>
   <v type="int" >        2        8       10       11       14 </v>
   <v type="int" >        2       10       11       14       17 </v>
   <v type="int" >        2       10       14       16       17 </v>
   <v type="int" >        2        7        8       11       13 </v>
   <v type="int" >        2        8       11       13       14 </v>
   <v type="int" >        2       11       13       14       17 </v>
   <v type="int" >        2        7       11       12       13 </v>
   <v type="int" >        2       11       12       13       18 </v>
   <v type="int" >        2       11       13       17       18 </v>
   <v type="int" >        4        7       12       12       18 </v>
   <v type="int" >        4        7       12       13       18 </v>
   <v type="int" >        4       12       13       18       18 </v>
   <v type="int" >        2       13       17       17       18 </v>
   <v type="int" >        2       13       17       18       18 </v>
   <v type="int" >        2       13       13       17       18 </v>
   <v type="int" >        2       13       14       17       17 </v>
   <v type="int" >        2       13       14       14       17 </v>
   <v type="int" >        2       13       13       14       17 </v>
   <v type="int" >        2       14       16       16       17 </v>
   <v type="int" >        2       14       16       17       17 </v>
   <v type="int" >        2       14       14       16       17 </v>
   <v type="int" >        2       14       15       16       16 </v>
   <v type="int" >        2       14       15       15       16 </v>
   <v type="int" >        2       14       14       15       16 </v>
   <v type="int" >        4       15       15       15       16 </v>
   <v type="int" >        2       15       15       16       16 </v>
   <v type="int" >        4       13       18       18       18 </v>
   <v type="int" >        2       13       13       18       18 </v>
   <v type="int" >        2        1        5        5        6 </v>
   <v type="int" >        2        1        5        6        6 </v>
   <v type="int" >        2        1        1        5        6 </v>
   <v type="int" >        2        1        2        5        5 </v>
   <v type="int" >        2        1        2        2        5 </v>
   <v type="int" >        2        1        1        2        5 </v>
   <v type="int" >        2        2        4        4        5 </v>
   <v type="int" >        2        2        4        5        5 </v>
   <v type="int" >        2        2        2        4        5 </v>
   <v type="int" >        2        2        3        4        4 </v>
   <v type="int" >        2        2        3        3        4 </v>
   <v type="int" >        2        2        2        3        4 </v>
   <v type="int" >        4        3        3        3        4 </v>
   <v type="int" >        2        3        3        4        4 </v>
   <v type="int" >        4        1        6        6        6 </v>
   <v type="int" >        2        1        1        6        6 </v>
  </varray>
  <i name="volumeweight">      0.00115741 </i>
 </kpoints>
 <parameters>
  <separator name="general" >
   <i type="string" name="SYSTEM">unknown system</i>
   <i type="logical" name="LCOMPAT"> F  </i>
  </separator>
  <separator name="electronic" >
   <i type="string" name="PREC">accura</i>
   <i name="ENMAX">    550.00000000</i>
   <i name="ENAUG">    605.39200000</i>
   <i name="EDIFF">      0.00000000</i>
   <i type="int" name="IALGO">    38</i>
   <i type="int" name="IWAVPR">    11</i>
   <i type="int" name="NBANDS">    96</i>
   <i name="NELECT">    120.00000000</i>
   <i type="int" name="TURBO">     0</i>
   <i type="int" name="IRESTART">     0</i>
   <i type="int" name="NREBOOT">     0</i>
   <i type="int" name="NMIN">     0</i>
   <i name="EREF">      0.00000000</i>
   <separator name="electronic smearing" >
    <i type="int" name="ISMEAR">    -5</i>
    <i name="SIGMA">      0.20000000</i>
    <i name="KSPACING">      0.50000000</i>
    <i type="logical" name="KGAMMA"> T  </i>
   </separator>
   <separator name="electronic projectors" >
    <i type="logical" name="LREAL"> F  </i>
    <v name="ROPT">      0.00000000      0.00000000</v>
    <i type="int" name="LMAXPAW">  -100</i>
    <i type="int" name="LMAXMIX">     4</i>
    <i type="logical" name="NLSPLINE"> F  </i>
   </separator>
   <separator name="electronic startup" >
    <i type="int" name="ISTART">     0</i>
    <i type="int" name="ICHARG">     2</i>
    <i type="int" name="INIWAV">     1</i>
   </separator>
   <separator name="electronic spin" >
    <i type="int" name="ISPIN">     1</i>
    <i type="logical" name="LNONCOLLINEAR"> F  </i>
    <v name="MAGMOM">      1.00000000      1.00000000      1.00000000      1.00000000      1.00000000      1.00000000      1.00000000      1.00000000      1.00000000      1.00000000      1.00000000      1.00000000      1.00000000      1.00000000      1.00000000      1.00000000</v>
    <i name="NUPDOWN">     -1.00000000</i>
    <i type="logical" name="LSORBIT"> F  </i>
    <v name="SAXIS">      0.00000000      0.00000000      1.00000000</v>
    <i type="logical" name="LSPIRAL"> F  </i>
    <v name="QSPIRAL">      0.00000000      0.00000000      0.00000000</v>
    <i type="logical" name="LZEROZ"> F  </i>
   </separator>
   <separator name="electronic exchange-correlation" >
    <i type="logical" name="LASPH"> F  </i>
    <i type="logical" name="LMETAGGA"> F  </i>
   </separator>
   <separator name="electronic convergence" >
    <i type="int" name="NELM">    80</i>
    <i type="int" name="NELMDL">     0</i>
    <i type="int" name="NELMIN">     6</i>
    <i name="ENINI">    550.00000000</i>
    <separator name="electronic convergence detail" >
     <i type="logical" name="LDIAG"> T  </i>
     <i type="logical" name="LSUBROT"> T  </i>
     <i name="WEIMIN">      0.00100000</i>
     <i name="EBREAK">      0.00000000</i>
     <i name="DEPER">      0.30000000</i>
     <i type="int" name="NRMM">     4</i>
     <i name="TIME">      0.40000000</i>
    </separator>
   </separator>
   <separator name="electronic mixer" >
    <i name="AMIX">      0.40000000</i>
    <i name="BMIX">      1.00000000</i>
    <i name="AMIN">      0.10000000</i>
    <i name="AMIX_MAG">      1.60000000</i>
    <i name="BMIX_MAG">      1.00000000</i>
    <separator name="electronic mixer details" >
     <i type="int" name="IMIX">     4</i>
     <i type="int" name="MAXMIX">   -45</i>
     <i name="WC">    100.00000000</i>
     <i type="int" name="INIMIX">     1</i>
     <i type="int" name="MIXPRE">     1</i>
     <i type="int" name="MREMOVE">     5</i>
    </separator>
   </separator>
   <separator name="electronic dipolcorrection" >
    <i type="logical" name="LDIPOL"> F  </i>
    <i type="logical" name="LMONO"> F  </i>
    <i type="int" name="IDIPOL">     0</i>
    <i name="EPSILON">      1.00000000</i>
    <v name="DIPOL">   -100.00000000   -100.00000000   -100.00000000</v>
    <i name="EFIELD">      0.00000000</i>
   </separator>
  </separator>
  <separator name="grids" >
   <i type="int" name="NGX">    42</i>
   <i type="int" name="NGY">    40</i>
   <i type="int" name="NGZ">    60</i>
   <i type="int" name="NGXF">    84</i>
   <i type="int" name="NGYF">    80</i>
   <i type="int" name="NGZF">   120</i>
   <i type="logical" name="ADDGRID"> T  </i>
  </separator>
  <separator name="ionic" >
   <i type="int" name="NSW">     1</i>
   <i type="int" name="IBRION">     8</i>
   <i type="int" name="ISIF">     3</i>
   <i name="PSTRESS">      0.00000000</i>
   <i name="EDIFFG">      0.00000001</i>
   <i type="int" name="NFREE">     0</i>
   <i name="POTIM">      0.50000000</i>
   <i name="SMASS">     -3.00000000</i>
   <i name="SCALEE">      1.00000000</i>
  </separator>
  <separator name="ionic md" >
   <i name="TEBEG">      0.00010000</i>
   <i name="TEEND">      0.00010000</i>
   <i type="int" name="NBLOCK">     1</i>
   <i type="int" name="KBLOCK">     1</i>
   <i type="int" name="NPACO">   256</i>
   <i name="APACO">     16.00000000</i>
  </separator>
  <separator name="symmetry" >
   <i type="int" name="ISYM">     2</i>
   <i name="SYMPREC">      0.00001000</i>
  </separator>
  <separator name="dos" >
   <i type="logical" name="LORBIT"> F  </i>
   <v name="RWIGS">     -1.00000000     -1.00000000</v>
   <i type="int" name="NEDOS">   301</i>
   <i name="EMIN">     10.00000000</i>
   <i name="EMAX">    -10.00000000</i>
   <i name="EFERMI">      0.00000000</i>
  </separator>
  <separator name="writing" >
   <i type="int" name="NWRITE">     2</i>
   <i type="logical" name="LWAVE"> F  </i>
   <i type="logical" name="LCHARG"> T  </i>
   <i type="logical" name="LPARD"> F  </i>
   <i type="logical" name="LVTOT"> F  </i>
   <i type="logical" name="LVHAR"> F  </i>
   <i type="logical" name="LELF"> F  </i>
   <i type="logical" name="LOPTICS"> F  </i>
   <v name="STM">      0.00000000      0.00000000      0.00000000      0.00000000      0.00000000      0.00000000      0.00000000</v>
  </separator>
  <separator name="performance" >
   <i type="int" name="NPAR">    32</i>
   <i type="int" name="NSIM">     4</i>
   <i type="int" name="NBLK">    -1</i>
   <i type="logical" name="LPLANE"> T  </i>
   <i type="logical" name="LSCALAPACK"> F  </i>
   <i type="logical" name="LSCAAWARE"> F  </i>
   <i type="logical" name="LSCALU"> F  </i>
   <i type="logical" name="LASYNC"> F  </i>
   <i type="logical" name="LORBITALREAL"> F  </i>
  </separator>
  <separator name="miscellaneous" >
   <i type="int" name="IDIOT">     3</i>
   <i type="logical" name="LMUSIC"> F  </i>
   <v name="POMASS">    183.85000000     16.00000000</v>
   <v name="DARWINR">      0.00000000      0.00000000</v>
   <v name="DARWINV">      1.00000000      1.00000000</v>
   <i type="logical" name="LCORR"> T  </i>
  </separator>
  <i type="logical" name="GGA_COMPAT"> T  </i>
  <i type="logical" name="LBERRY"> F  </i>
  <i type="int" name="ICORELEVEL">     0</i>
  <i type="logical" name="LDAU"> F  </i>
  <i type="int" name="I_CONSTRAINED_M">     0</i>
  <separator name="electronic exchange-correlation" >
   <i type="string" name="GGA">PS</i>
   <i type="int" name="VOSKOWN">     0</i>
   <i type="logical" name="LHFCALC"> F  </i>
   <i type="string" name="PRECFOCK"></i>
   <i type="logical" name="LSYMGRAD"> F  </i>
   <i type="logical" name="LHFONE"> F  </i>
   <i type="logical" name="LRHFCALC"> F  </i>
   <i type="logical" name="LTHOMAS"> F  </i>
   <i type="logical" name="LMODELHF"> F  </i>
   <i name="ENCUT4O">     -1.00000000</i>
   <i type="int" name="EXXOEP">     0</i>
   <i type="int" name="FOURORBIT">     0</i>
   <i name="AEXX">      0.00000000</i>
   <i name="HFALPHA">      0.00000000</i>
   <i name="MCALPHA">      0.00000000</i>
   <i name="ALDAX">      1.00000000</i>
   <i name="AGGAX">      1.00000000</i>
   <i name="ALDAC">      1.00000000</i>
   <i name="AGGAC">      1.00000000</i>
   <i type="int" name="NKREDX">     1</i>
   <i type="int" name="NKREDY">     1</i>
   <i type="int" name="NKREDZ">     1</i>
   <i type="logical" name="SHIFTRED"> F  </i>
   <i type="logical" name="ODDONLY"> F  </i>
   <i type="logical" name="EVENONLY"> F  </i>
   <i type="int" name="LMAXFOCK">     0</i>
   <i type="int" name="NMAXFOCKAE">     0</i>
   <i type="logical" name="LFOCKAEDFT"> F  </i>
   <i name="HFSCREEN">      0.00000000</i>
   <i name="HFSCREENC">      0.00000000</i>
   <i type="int" name="NBANDSGWLOW">     0</i>
  </separator>
  <separator name="vdW DFT" >
   <i type="logical" name="LUSE_VDW"> F  </i>
   <i name="Zab_VDW">     -0.84910000</i>
   <i name="PARAM1">      0.12340000</i>
   <i name="PARAM2">      1.00000000</i>
   <i name="PARAM3">      0.00000000</i>
  </separator>
  <separator name="model GW" >
   <i type="int" name="MODEL_GW">     0</i>
   <i name="MODEL_EPS0">      8.19727914</i>
   <i name="MODEL_ALPHA">      1.00000000</i>
  </separator>
  <separator name="linear response parameters" >
   <i type="logical" name="LEPSILON"> T  </i>
   <i type="logical" name="LRPA"> F  </i>
   <i type="logical" name="LNABLA"> F  </i>
   <i type="logical" name="LVEL"> F  </i>
   <i type="int" name="KINTER">     0</i>
   <i name="CSHIFT">      0.10000000</i>
   <i name="OMEGAMAX">     -1.00000000</i>
   <i name="DEG_THRESHOLD">      0.00200000</i>
  </separator>
  <separator name="orbital magnetization" >
   <i type="logical" name="NUCIND"> F  </i>
   <v name="MAGPOS">      0.00000000      0.00000000      0.00000000</v>
   <i type="logical" name="LNICSALL"> T  </i>
   <i type="logical" name="ORBITALMAG"> F  </i>
   <i type="logical" name="LMAGBLOCH"> F  </i>
   <i type="logical" name="LCHIMAG"> F  </i>
   <i type="logical" name="LGAUGE"> T  </i>
   <i type="int" name="MAGATOM">     0</i>
   <v name="MAGDIPOL">      0.00000000      0.00000000      0.00000000</v>
   <v name="AVECCONST">      0.00000000      0.00000000      0.00000000</v>
  </separator>
  <separator name="response functions" >
   <i type="logical" name="LADDER"> T  </i>
   <i type="logical" name="LFXC"> F  </i>
   <i type="logical" name="LHARTREE"> T  </i>
   <i type="int" name="IBSE">     0</i>
   <i type="logical" name="LTCTE"> F  </i>
   <i type="logical" name="LTETE"> F  </i>
   <i type="logical" name="LTRIPLET"> F  </i>
   <i type="logical" name="LFXCEPS"> F  </i>
   <i type="logical" name="L2ORDER"> F  </i>
   <i type="logical" name="LUSEW"> F  </i>
   <i name="ENCUTGW">     -2.00000000</i>
   <i name="ENCUTGWSOFT">     -2.00000000</i>
   <i name="ENCUTLF">     -1.00000000</i>
   <i type="int" name="LMAXMP2">    -1</i>
   <i name="SCISSOR">      0.00000000</i>
   <i type="int" name="NOMEGA">     0</i>
   <i type="int" name="NOMEGAR">     0</i>
   <i type="int" name="NBANDSGW">    -1</i>
   <i type="int" name="NBANDSO">    -1</i>
   <i type="int" name="NBANDSV">    -1</i>
   <i type="int" name="NELM">    80</i>
   <i type="int" name="DIM">     3</i>
   <i type="int" name="ANTIRES">     0</i>
   <i name="OMEGAMAX">    -30.00000000</i>
   <i name="OMEGATL">   -200.00000000</i>
   <i type="int" name="OMEGAGRID">     0</i>
   <i name="CSHIFT">     -0.10000000</i>
   <i type="logical" name="SELFENERGY"> F  </i>
   <i type="logical" name="LSPECTRAL"> F  </i>
   <i type="logical" name="ODDONLYGW"> F  </i>
   <i type="logical" name="EVENONLYGW"> F  </i>
   <i type="int" name="NKREDLFX">     1</i>
   <i type="int" name="NKREDLFY">     1</i>
   <i type="int" name="NKREDLFZ">     1</i>
   <i type="int" name="MAXMEM">  1800</i>
   <i type="int" name="TELESCOPE">     0</i>
  </separator>
 </parameters>
 <atominfo>
  <atoms>      16 </atoms>
  <types>       2 </types>
  <array name="atoms" >
   <dimension dim="1">ion</dimension>
   <field type="string">element</field>
   <field type="int">atomtype</field>
   <set>
    <rc><c>W </c><c>   1</c></rc>
    <rc><c>W </c><c>   1</c></rc>
    <rc><c>W </c><c>   1</c></rc>
    <rc><c>W </c><c>   1</c></rc>
    <rc><c>O </c><c>   2</c></rc>
    <rc><c>O </c><c>   2</c></rc>
    <rc><c>O </c><c>   2</c></rc>
    <rc><c>O </c><c>   2</c></rc>
    <rc><c>O </c><c>   2</c></rc>
    <rc><c>O </c><c>   2</c></rc>
    <rc><c>O </c><c>   2</c></rc>
    <rc><c>O </c><c>   2</c></rc>
    <rc><c>O </c><c>   2</c></rc>
    <rc><c>O </c><c>   2</c></rc>
    <rc><c>O </c><c>   2</c></rc>
    <rc><c>O </c><c>   2</c></rc>
   </set>
  </array>
  <array name="atomtypes" >
   <dimension dim="1">type</dimension>
   <field type="int">atomspertype</field>
   <field type="string">element</field>
   <field>mass</field>
   <field>valence</field>
   <field type="string">pseudopotential</field>
   <set>
    <rc><c>   4</c><c>W </c><c>    183.85000000</c><c>     12.00000000</c><c> PAW_PBE W_pv 06Sep2000                 </c></rc>
    <rc><c>  12</c><c>O </c><c>     16.00000000</c><c>      6.00000000</c><c>  PAW_PBE O 08Apr2002                   </c></rc>
   </set>
  </array>
 </atominfo>
 <structure name="initialpos" >
  <crystal>
   <varray name="basis" >
    <v>       5.33214736       0.00000000      -0.00953230 </v>
    <v>       0.00000000       5.28964104       0.00000000 </v>
    <v>      -0.09271887       0.00000000       7.75031583 </v>
   </varray>
   <i name="volume">    218.59411038 </i>
   <varray name="rec_basis" >
    <v>       0.18754571      -0.00000000       0.00224365 </v>
    <v>      -0.00000000       0.18904875      -0.00000000 </v>
    <v>       0.00023067      -0.00000000       0.12902976 </v>
   </varray>
  </crystal>
  <varray name="positions" >
   <v>       0.75319375       0.76876586       0.78076296 </v>
   <v>       0.24680625       0.26876586       0.71923704 </v>
   <v>       0.24680625       0.23123414       0.21923704 </v>
   <v>       0.75319375       0.73123414       0.28076296 </v>
   <v>       0.52554489       0.02824833       0.77209045 </v>
   <v>       0.47445511       0.52824833       0.72790955 </v>
   <v>       0.47445511       0.97175167       0.22790955 </v>
   <v>       0.52554489       0.47175167       0.27209045 </v>
   <v>       0.96725815       0.47180210       0.72776737 </v>
   <v>       0.03274185       0.97180210       0.77223263 </v>
   <v>       0.03274185       0.52819790       0.27223263 </v>
   <v>       0.96725815       0.02819790       0.22776737 </v>
   <v>       0.75129717       0.70774107       0.00657792 </v>
   <v>       0.24870283       0.20774107       0.49342208 </v>
   <v>       0.24870283       0.29225893       0.99342208 </v>
   <v>       0.75129717       0.79225893       0.50657792 </v>
  </varray>
 </structure>
 <calculation>
  <scstep>
   <time name="dav">   10.80   10.83</time>
   <time name="total">   11.06   11.48</time>
   <energy>
    <i name="alphaZ">    625.16251515 </i>
    <i name="ewald">  -6802.86727700 </i>
    <i name="hartreedc">  -3127.01770866 </i>
    <i name="XCdc">    477.07338142 </i>
    <i name="pawpsdc">   7406.00238549 </i>
    <i name="pawaedc">  -7373.66181403 </i>
    <i name="eentropy">      0.00000000 </i>
    <i name="bandstr">   -399.92314673 </i>
    <i name="atom">  10212.71936894 </i>
    <i name="e_fr_energy">   1017.48770456 </i>
    <i name="e_wo_entrp">   1017.48770456 </i>
    <i name="e_0_energy">   1017.48770456 </i>
   </energy>
  </scstep>
  <scstep>
   <time name="dav">   12.27   12.23</time>
   <time name="total">   12.29   12.26</time>
   <energy>
    <i name="e_fr_energy">   -122.93147470 </i>
    <i name="e_wo_entrp">   -122.93147470 </i>
    <i name="e_0_energy">   -122.93147470 </i>
   </energy>
  </scstep>
  <scstep>
   <time name="dav">   13.34   13.69</time>
   <time name="total">   13.35   13.74</time>
   <energy>
    <i name="e_fr_energy">   -183.15835908 </i>
    <i name="e_wo_entrp">   -183.15835908 </i>
    <i name="e_0_energy">   -183.15835908 </i>
   </energy>
  </scstep>
  <scstep>
   <time name="dav">   10.33   10.60</time>
   <time name="total">   10.34   10.62</time>
   <energy>
    <i name="e_fr_energy">   -183.68736463 </i>
    <i name="e_wo_entrp">   -183.68736463 </i>
    <i name="e_0_energy">   -183.68736463 </i>
   </energy>
  </scstep>
  <scstep>
   <time name="dav">   13.36   13.70</time>
   <time name="total">   14.04   14.43</time>
   <energy>
    <i name="e_fr_energy">   -183.69237485 </i>
    <i name="e_wo_entrp">   -183.69237485 </i>
    <i name="e_0_energy">   -183.69237485 </i>
   </energy>
  </scstep>
  <scstep>
   <time name="dav">   11.66   12.00</time>
   <time name="total">   12.42   12.78</time>
   <energy>
    <i name="e_fr_energy">   -152.30898033 </i>
    <i name="e_wo_entrp">   -152.30898033 </i>
    <i name="e_0_energy">   -152.30898033 </i>
   </energy>
  </scstep>
  <scstep>
   <time name="dav">   10.88   11.11</time>
   <time name="total">   11.63   11.88</time>
   <energy>
    <i name="e_fr_energy">   -150.42548543 </i>
    <i name="e_wo_entrp">   -150.42548543 </i>
    <i name="e_0_energy">   -150.42548543 </i>
   </energy>
  </scstep>
  <scstep>
   <time name="dav">   13.22   13.43</time>
   <time name="total">   13.99   14.21</time>
   <energy>
    <i name="e_fr_energy">   -150.13038378 </i>
    <i name="e_wo_entrp">   -150.13038378 </i>
    <i name="e_0_energy">   -150.13038378 </i>
   </energy>
  </scstep>
  <scstep>
   <time name="dav">   11.44   11.60</time>
   <time name="total">   12.20   12.37</time>
   <energy>
    <i name="e_fr_energy">   -150.04059495 </i>
    <i name="e_wo_entrp">   -150.04059495 </i>
    <i name="e_0_energy">   -150.04059495 </i>
   </energy>
  </scstep>
  <scstep>
   <time name="dav">   13.45   13.78</time>
   <time name="total">   14.21   14.57</time>
   <energy>
    <i name="e_fr_energy">   -150.02681804 </i>
    <i name="e_wo_entrp">   -150.02681804 </i>
    <i name="e_0_energy">   -150.02681804 </i>
   </energy>
  </scstep>
  <scstep>
   <time name="dav">   12.80   13.02</time>
   <time name="total">   13.56   13.79</time>
   <energy>
    <i name="e_fr_energy">   -150.02188273 </i>
    <i name="e_wo_entrp">   -150.02188273 </i>
    <i name="e_0_energy">   -150.02188273 </i>
   </energy>
  </scstep>
  <scstep>
   <time name="dav">   13.88   14.12</time>
   <time name="total">   14.65   14.91</time>
   <energy>
    <i name="e_fr_energy">   -150.02163084 </i>
    <i name="e_wo_entrp">   -150.02163084 </i>
    <i name="e_0_energy">   -150.02163084 </i>
   </energy>
  </scstep>
  <scstep>
   <time name="dav">   10.59   10.58</time>
   <time name="total">   11.36   11.35</time>
   <energy>
    <i name="e_fr_energy">   -150.02182057 </i>
    <i name="e_wo_entrp">   -150.02182057 </i>
    <i name="e_0_energy">   -150.02182057 </i>
   </energy>
  </scstep>
  <scstep>
   <time name="dav">   12.39   12.36</time>
   <time name="total">   13.21   13.21</time>
   <energy>
    <i name="e_fr_energy">   -150.02183775 </i>
    <i name="e_wo_entrp">   -150.02183775 </i>
    <i name="e_0_energy">   -150.02183775 </i>
   </energy>
  </scstep>
  <scstep>
   <time name="dav">   12.08   12.05</time>
   <time name="total">   12.85   12.84</time>
   <energy>
    <i name="e_fr_energy">   -150.02184068 </i>
    <i name="e_wo_entrp">   -150.02184068 </i>
    <i name="e_0_energy">   -150.02184068 </i>
   </energy>
  </scstep>
  <scstep>
   <time name="dav">   10.98   11.23</time>
   <time name="total">   11.77   12.04</time>
   <energy>
    <i name="e_fr_energy">   -150.02184190 </i>
    <i name="e_wo_entrp">   -150.02184190 </i>
    <i name="e_0_energy">   -150.02184190 </i>
   </energy>
  </scstep>
  <scstep>
   <time name="dav">   12.67   12.96</time>
   <time name="total">   13.43   13.74</time>
   <energy>
    <i name="e_fr_energy">   -150.02184189 </i>
    <i name="e_wo_entrp">   -150.02184189 </i>
    <i name="e_0_energy">   -150.02184189 </i>
   </energy>
  </scstep>
  <scstep>
   <time name="dav">   11.67   11.92</time>
   <time name="total">   12.43   12.69</time>
   <energy>
    <i name="e_fr_energy">   -150.02184189 </i>
    <i name="e_wo_entrp">   -150.02184189 </i>
    <i name="e_0_energy">   -150.02184189 </i>
   </energy>
  </scstep>
  <scstep>
   <time name="dav">   13.01   13.35</time>
   <time name="total">   13.78   14.12</time>
   <energy>
    <i name="e_fr_energy">   -150.02184190 </i>
    <i name="e_wo_entrp">   -150.02184190 </i>
    <i name="e_0_energy">   -150.02184190 </i>
   </energy>
  </scstep>
  <scstep>
   <time name="dav">    9.28    9.47</time>
   <time name="total">   10.04   10.24</time>
   <energy>
    <i name="e_fr_energy">   -150.02184190 </i>
    <i name="e_wo_entrp">   -150.02184190 </i>
    <i name="e_0_energy">   -150.02184190 </i>
   </energy>
  </scstep>
  <scstep>
   <time name="dav">   10.26   10.46</time>
   <time name="total">   10.40   10.62</time>
   <energy>
    <i name="alphaZ">    625.16251515 </i>
    <i name="ewald">  -6802.86727700 </i>
    <i name="hartreedc">  -3148.26048780 </i>
    <i name="XCdc">    483.40914215 </i>
    <i name="pawpsdc">   9025.97825102 </i>
    <i name="pawaedc">  -9025.04258548 </i>
    <i name="eentropy">      0.00000000 </i>
    <i name="bandstr">  -1521.12076888 </i>
    <i name="atom">  10212.71936894 </i>
    <i name="e_fr_energy">   -150.02184190 </i>
    <i name="e_wo_entrp">   -150.02184190 </i>
    <i name="e_0_energy">   -150.02184190 </i>
   </energy>
  </scstep>
  <structure>
   <crystal>
    <varray name="basis" >
     <v>       5.33214736       0.00000000      -0.00953230 </v>
     <v>       0.00000000       5.28964104       0.00000000 </v>
     <v>      -0.09271887       0.00000000       7.75031583 </v>
    </varray>
    <i name="volume">    218.59411038 </i>
    <varray name="rec_basis" >
     <v>       0.18754571      -0.00000000       0.00224365 </v>
     <v>      -0.00000000       0.18904875      -0.00000000 </v>
     <v>       0.00023067      -0.00000000       0.12902976 </v>
    </varray>
   </crystal>
   <varray name="positions" >
    <v>       0.75319375       0.76876586       0.78076296 </v>
    <v>       0.24680625       0.26876586       0.71923704 </v>
    <v>       0.24680625       0.23123414       0.21923704 </v>
    <v>       0.75319375       0.73123414       0.28076296 </v>
    <v>       0.52554489       0.02824833       0.77209045 </v>
    <v>       0.47445511       0.52824833       0.72790955 </v>
    <v>       0.47445511       0.97175167       0.22790955 </v>
    <v>       0.52554489       0.47175167       0.27209045 </v>
    <v>       0.96725815       0.47180210       0.72776737 </v>
    <v>       0.03274185       0.97180210       0.77223263 </v>
    <v>       0.03274185       0.52819790       0.27223263 </v>
    <v>       0.96725815       0.02819790       0.22776737 </v>
    <v>       0.75129717       0.70774107       0.00657792 </v>
    <v>       0.24870283       0.20774107       0.49342208 </v>
    <v>       0.24870283       0.29225893       0.99342208 </v>
    <v>       0.75129717       0.79225893       0.50657792 </v>
   </varray>
  </structure>
  <varray name="forces" >
   <v>       0.00001637      -0.00000487      -0.00000069 </v>
   <v>      -0.00001637      -0.00000487       0.00000069 </v>
   <v>      -0.00001637       0.00000487       0.00000069 </v>
   <v>       0.00001637       0.00000487      -0.00000069 </v>
   <v>       0.00003794       0.00002971       0.00002299 </v>
   <v>      -0.00003794       0.00002971      -0.00002299 </v>
   <v>      -0.00003794      -0.00002971      -0.00002299 </v>
   <v>       0.00003794      -0.00002971       0.00002299 </v>
   <v>      -0.00002386      -0.00004080      -0.00002236 </v>
   <v>       0.00002386      -0.00004080       0.00002236 </v>
   <v>       0.00002386       0.00004080       0.00002236 </v>
   <v>      -0.00002386       0.00004080      -0.00002236 </v>
   <v>      -0.00000045      -0.00003493       0.00000887 </v>
   <v>       0.00000045      -0.00003493      -0.00000887 </v>
   <v>       0.00000045       0.00003493      -0.00000887 </v>
   <v>      -0.00000045       0.00003493       0.00000887 </v>
  </varray>
  <varray name="stress" >
   <v>      -0.00066969       0.00000000      -0.00015295 </v>
   <v>       0.00000000      -0.00064320       0.00000000 </v>
   <v>      -0.00015286       0.00000000       0.00097768 </v>
  </varray>
  <energy>
   <i name="e_fr_energy">   -150.02184190 </i>
   <i name="e_wo_entrp">   -150.02184190 </i>
   <i name="e_0_energy">      0.00000000 </i>
  </energy>
  <scstep>
   <time name="total">   11.11   11.13</time>
   <energy>
    <i name="e_fr_energy">   -474.22530481 </i>
    <i name="e_wo_entrp">   -474.22530481 </i>
    <i name="e_0_energy">   -474.22530481 </i>
   </energy>
  </scstep>
  <scstep>
   <time name="total">   11.96   11.97</time>
   <energy>
    <i name="e_fr_energy">   -502.23976885 </i>
    <i name="e_wo_entrp">   -502.23976885 </i>
    <i name="e_0_energy">   -502.23976885 </i>
   </energy>
  </scstep>
  <scstep>
   <time name="total">   12.78   12.80</time>
   <energy>
    <i name="e_fr_energy">   -501.85628607 </i>
    <i name="e_wo_entrp">   -501.85628607 </i>
    <i name="e_0_energy">   -501.85628607 </i>
   </energy>
  </scstep>
  <scstep>
   <time name="total">   10.97   10.99</time>
   <energy>
    <i name="e_fr_energy">   -501.85436750 </i>
    <i name="e_wo_entrp">   -501.85436750 </i>
    <i name="e_0_energy">   -501.85436750 </i>
   </energy>
  </scstep>
  <scstep>
   <time name="total">   11.17   11.18</time>
   <energy>
    <i name="e_fr_energy">   -501.85415906 </i>
    <i name="e_wo_entrp">   -501.85415906 </i>
    <i name="e_0_energy">   -501.85415906 </i>
   </energy>
  </scstep>
  <scstep>
   <time name="total">   11.21   11.23</time>
   <energy>
    <i name="e_fr_energy">   -501.85393368 </i>
    <i name="e_wo_entrp">   -501.85393368 </i>
    <i name="e_0_energy">   -501.85393368 </i>
   </energy>
  </scstep>
  <scstep>
   <time name="total">   11.54   11.56</time>
   <energy>
    <i name="e_fr_energy">   -501.85387499 </i>
    <i name="e_wo_entrp">   -501.85387499 </i>
    <i name="e_0_energy">   -501.85387499 </i>
   </energy>
  </scstep>
  <scstep>
   <time name="total">   11.34   11.35</time>
   <energy>
    <i name="e_fr_energy">   -501.85386624 </i>
    <i name="e_wo_entrp">   -501.85386624 </i>
    <i name="e_0_energy">   -501.85386624 </i>
   </energy>
  </scstep>
  <scstep>
   <time name="total">   11.00   11.02</time>
   <energy>
    <i name="e_fr_energy">   -501.85386324 </i>
    <i name="e_wo_entrp">   -501.85386324 </i>
    <i name="e_0_energy">   -501.85386324 </i>
   </energy>
  </scstep>
  <scstep>
   <time name="total">   10.59   10.62</time>
   <energy>
    <i name="e_fr_energy">   -501.85386223 </i>
    <i name="e_wo_entrp">   -501.85386223 </i>
    <i name="e_0_energy">   -501.85386223 </i>
   </energy>
  </scstep>
  <scstep>
   <time name="total">   10.31   10.33</time>
   <energy>
    <i name="e_fr_energy">   -501.85386289 </i>
    <i name="e_wo_entrp">   -501.85386289 </i>
    <i name="e_0_energy">   -501.85386289 </i>
   </energy>
  </scstep>
  <scstep>
   <time name="total">   11.15   11.19</time>
   <energy>
    <i name="e_fr_energy">   -472.33530496 </i>
    <i name="e_wo_entrp">   -472.33530496 </i>
    <i name="e_0_energy">   -472.33530496 </i>
   </energy>
  </scstep>
  <scstep>
   <time name="total">   11.98   12.00</time>
   <energy>
    <i name="e_fr_energy">   -501.37961045 </i>
    <i name="e_wo_entrp">   -501.37961045 </i>
    <i name="e_0_energy">   -501.37961045 </i>
   </energy>
  </scstep>
  <scstep>
   <time name="total">   12.81   12.84</time>
   <energy>
    <i name="e_fr_energy">   -501.08910665 </i>
    <i name="e_wo_entrp">   -501.08910665 </i>
    <i name="e_0_energy">   -501.08910665 </i>
   </energy>
  </scstep>
  <scstep>
   <time name="total">   10.95   10.98</time>
   <energy>
    <i name="e_fr_energy">   -501.08173890 </i>
    <i name="e_wo_entrp">   -501.08173890 </i>
    <i name="e_0_energy">   -501.08173890 </i>
   </energy>
  </scstep>
  <scstep>
   <time name="total">   11.20   11.23</time>
   <energy>
    <i name="e_fr_energy">   -501.08120015 </i>
    <i name="e_wo_entrp">   -501.08120015 </i>
    <i name="e_0_energy">   -501.08120015 </i>
   </energy>
  </scstep>
  <scstep>
   <time name="total">   11.16   11.20</time>
   <energy>
    <i name="e_fr_energy">   -501.08107906 </i>
    <i name="e_wo_entrp">   -501.08107906 </i>
    <i name="e_0_energy">   -501.08107906 </i>
   </energy>
  </scstep>
  <scstep>
   <time name="total">   11.44   11.46</time>
   <energy>
    <i name="e_fr_energy">   -501.08104511 </i>
    <i name="e_wo_entrp">   -501.08104511 </i>
    <i name="e_0_energy">   -501.08104511 </i>
   </energy>
  </scstep>
  <scstep>
   <time name="total">   11.34   11.36</time>
   <energy>
    <i name="e_fr_energy">   -501.08103780 </i>
    <i name="e_wo_entrp">   -501.08103780 </i>
    <i name="e_0_energy">   -501.08103780 </i>
   </energy>
  </scstep>
  <scstep>
   <time name="total">   11.16   11.18</time>
   <energy>
    <i name="e_fr_energy">   -501.08103771 </i>
    <i name="e_wo_entrp">   -501.08103771 </i>
    <i name="e_0_energy">   -501.08103771 </i>
   </energy>
  </scstep>
  <scstep>
   <time name="total">   10.74   10.76</time>
   <energy>
    <i name="e_fr_energy">   -501.08103611 </i>
    <i name="e_wo_entrp">   -501.08103611 </i>
    <i name="e_0_energy">   -501.08103611 </i>
   </energy>
  </scstep>
  <scstep>
   <time name="total">   10.19   10.22</time>
   <energy>
    <i name="e_fr_energy">   -501.08103657 </i>
    <i name="e_wo_entrp">   -501.08103657 </i>
    <i name="e_0_energy">   -501.08103657 </i>
   </energy>
  </scstep>
  <scstep>
   <time name="total">   10.59   10.61</time>
   <energy>
    <i name="e_fr_energy">   -461.19923892 </i>
    <i name="e_wo_entrp">   -461.19923892 </i>
    <i name="e_0_energy">   -461.19923892 </i>
   </energy>
  </scstep>
  <scstep>
   <time name="total">   11.69   11.71</time>
   <energy>
    <i name="e_fr_energy">   -503.08984439 </i>
    <i name="e_wo_entrp">   -503.08984439 </i>
    <i name="e_0_energy">   -503.08984439 </i>
   </energy>
  </scstep>
  <scstep>
   <time name="total">   12.77   12.79</time>
   <energy>
    <i name="e_fr_energy">   -502.71320087 </i>
    <i name="e_wo_entrp">   -502.71320087 </i>
    <i name="e_0_energy">   -502.71320087 </i>
   </energy>
  </scstep>
  <scstep>
   <time name="total">   11.38   11.41</time>
   <energy>
    <i name="e_fr_energy">   -502.71455052 </i>
    <i name="e_wo_entrp">   -502.71455052 </i>
    <i name="e_0_energy">   -502.71455052 </i>
   </energy>
  </scstep>
  <scstep>
   <time name="total">   11.13   11.16</time>
   <energy>
    <i name="e_fr_energy">   -502.71481600 </i>
    <i name="e_wo_entrp">   -502.71481600 </i>
    <i name="e_0_energy">   -502.71481600 </i>
   </energy>
  </scstep>
  <scstep>
   <time name="total">   11.43   11.46</time>
   <energy>
    <i name="e_fr_energy">   -502.71475214 </i>
    <i name="e_wo_entrp">   -502.71475214 </i>
    <i name="e_0_energy">   -502.71475214 </i>
   </energy>
  </scstep>
  <scstep>
   <time name="total">   11.48   11.50</time>
   <energy>
    <i name="e_fr_energy">   -502.71473393 </i>
    <i name="e_wo_entrp">   -502.71473393 </i>
    <i name="e_0_energy">   -502.71473393 </i>
   </energy>
  </scstep>
  <scstep>
   <time name="total">   11.33   11.35</time>
   <energy>
    <i name="e_fr_energy">   -502.71472871 </i>
    <i name="e_wo_entrp">   -502.71472871 </i>
    <i name="e_0_energy">   -502.71472871 </i>
   </energy>
  </scstep>
  <scstep>
   <time name="total">   10.64   10.65</time>
   <energy>
    <i name="e_fr_energy">   -502.71472450 </i>
    <i name="e_wo_entrp">   -502.71472450 </i>
    <i name="e_0_energy">   -502.71472450 </i>
   </energy>
  </scstep>
  <scstep>
   <time name="total">   10.17   10.19</time>
   <energy>
    <i name="e_fr_energy">   -502.71472440 </i>
    <i name="e_wo_entrp">   -502.71472440 </i>
    <i name="e_0_energy">   -502.71472440 </i>
   </energy>
  </scstep>
  <scstep>
   <time name="total">    9.75    9.78</time>
   <energy>
    <i name="e_fr_energy">   -502.71472511 </i>
    <i name="e_wo_entrp">   -502.71472511 </i>
    <i name="e_0_energy">   -502.71472511 </i>
   </energy>
  </scstep>
  <scstep>
   <time name="total">   14.75   14.78</time>
   <energy>
    <i name="e_fr_energy">     -3.64589665 </i>
    <i name="e_wo_entrp">     -3.64589665 </i>
    <i name="e_0_energy">     -3.64589665 </i>
   </energy>
  </scstep>
  <scstep>
   <time name="total">   12.21   12.23</time>
   <energy>
    <i name="e_fr_energy">     -3.94433887 </i>
    <i name="e_wo_entrp">     -3.94433887 </i>
    <i name="e_0_energy">     -3.94433887 </i>
   </energy>
  </scstep>
  <scstep>
   <time name="total">   12.90   12.92</time>
   <energy>
    <i name="e_fr_energy">     -3.94529071 </i>
    <i name="e_wo_entrp">     -3.94529071 </i>
    <i name="e_0_energy">     -3.94529071 </i>
   </energy>
  </scstep>
  <scstep>
   <time name="total">   13.25   13.27</time>
   <energy>
    <i name="e_fr_energy">     -3.94533875 </i>
    <i name="e_wo_entrp">     -3.94533875 </i>
    <i name="e_0_energy">     -3.94533875 </i>
   </energy>
  </scstep>
  <scstep>
   <time name="total">   13.32   13.34</time>
   <energy>
    <i name="e_fr_energy">     -3.94534319 </i>
    <i name="e_wo_entrp">     -3.94534319 </i>
    <i name="e_0_energy">     -3.94534319 </i>
   </energy>
  </scstep>
  <scstep>
   <time name="total">   13.60   13.63</time>
   <energy>
    <i name="e_fr_energy">     -3.94534326 </i>
    <i name="e_wo_entrp">     -3.94534326 </i>
    <i name="e_0_energy">     -3.94534326 </i>
   </energy>
  </scstep>
  <scstep>
   <time name="total">   13.38   13.41</time>
   <energy>
    <i name="e_fr_energy">     -3.94534327 </i>
    <i name="e_wo_entrp">     -3.94534327 </i>
    <i name="e_0_energy">     -3.94534327 </i>
   </energy>
  </scstep>
  <scstep>
   <time name="total">   12.67   12.70</time>
   <energy>
    <i name="e_fr_energy">     -3.94534327 </i>
    <i name="e_wo_entrp">     -3.94534327 </i>
    <i name="e_0_energy">     -3.94534327 </i>
   </energy>
  </scstep>
  <scstep>
   <time name="total">   14.75   14.82</time>
   <energy>
    <i name="e_fr_energy">     -3.38311126 </i>
    <i name="e_wo_entrp">     -3.38311126 </i>
    <i name="e_0_energy">     -3.38311126 </i>
   </energy>
  </scstep>
  <scstep>
   <time name="total">   12.47   12.52</time>
   <energy>
    <i name="e_fr_energy">     -3.67944292 </i>
    <i name="e_wo_entrp">     -3.67944292 </i>
    <i name="e_0_energy">     -3.67944292 </i>
   </energy>
  </scstep>
  <scstep>
   <time name="total">   12.96   13.01</time>
   <energy>
    <i name="e_fr_energy">     -3.68038751 </i>
    <i name="e_wo_entrp">     -3.68038751 </i>
    <i name="e_0_energy">     -3.68038751 </i>
   </energy>
  </scstep>
  <scstep>
   <time name="total">   13.19   13.25</time>
   <energy>
    <i name="e_fr_energy">     -3.68042649 </i>
    <i name="e_wo_entrp">     -3.68042649 </i>
    <i name="e_0_energy">     -3.68042649 </i>
   </energy>
  </scstep>
  <scstep>
   <time name="total">   13.43   13.48</time>
   <energy>
    <i name="e_fr_energy">     -3.68043133 </i>
    <i name="e_wo_entrp">     -3.68043133 </i>
    <i name="e_0_energy">     -3.68043133 </i>
   </energy>
  </scstep>
  <scstep>
   <time name="total">   13.48   13.56</time>
   <energy>
    <i name="e_fr_energy">     -3.68043140 </i>
    <i name="e_wo_entrp">     -3.68043140 </i>
    <i name="e_0_energy">     -3.68043140 </i>
   </energy>
  </scstep>
  <scstep>
   <time name="total">   13.37   13.47</time>
   <energy>
    <i name="e_fr_energy">     -3.68043140 </i>
    <i name="e_wo_entrp">     -3.68043140 </i>
    <i name="e_0_energy">     -3.68043140 </i>
   </energy>
  </scstep>
  <scstep>
   <time name="total">   12.68   12.75</time>
   <energy>
    <i name="e_fr_energy">     -3.68043140 </i>
    <i name="e_wo_entrp">     -3.68043140 </i>
    <i name="e_0_energy">     -3.68043140 </i>
   </energy>
  </scstep>
  <scstep>
   <time name="total">   14.43   14.49</time>
   <energy>
    <i name="e_fr_energy">     -3.03817586 </i>
    <i name="e_wo_entrp">     -3.03817586 </i>
    <i name="e_0_energy">     -3.03817586 </i>
   </energy>
  </scstep>
  <scstep>
   <time name="total">   12.37   12.41</time>
   <energy>
    <i name="e_fr_energy">     -3.32265597 </i>
    <i name="e_wo_entrp">     -3.32265597 </i>
    <i name="e_0_energy">     -3.32265597 </i>
   </energy>
  </scstep>
  <scstep>
   <time name="total">   13.06   13.12</time>
   <energy>
    <i name="e_fr_energy">     -3.32340226 </i>
    <i name="e_wo_entrp">     -3.32340226 </i>
    <i name="e_0_energy">     -3.32340226 </i>
   </energy>
  </scstep>
  <scstep>
   <time name="total">   13.32   13.39</time>
   <energy>
    <i name="e_fr_energy">     -3.32343968 </i>
    <i name="e_wo_entrp">     -3.32343968 </i>
    <i name="e_0_energy">     -3.32343968 </i>
   </energy>
  </scstep>
  <scstep>
   <time name="total">   13.23   13.27</time>
   <energy>
    <i name="e_fr_energy">     -3.32344340 </i>
    <i name="e_wo_entrp">     -3.32344340 </i>
    <i name="e_0_energy">     -3.32344340 </i>
   </energy>
  </scstep>
  <scstep>
   <time name="total">   13.59   13.68</time>
   <energy>
    <i name="e_fr_energy">     -3.32344346 </i>
    <i name="e_wo_entrp">     -3.32344346 </i>
    <i name="e_0_energy">     -3.32344346 </i>
   </energy>
  </scstep>
  <scstep>
   <time name="total">   13.44   13.48</time>
   <energy>
    <i name="e_fr_energy">     -3.32344347 </i>
    <i name="e_wo_entrp">     -3.32344347 </i>
    <i name="e_0_energy">     -3.32344347 </i>
   </energy>
  </scstep>
  <scstep>
   <time name="total">   12.55   12.59</time>
   <energy>
    <i name="e_fr_energy">     -3.32344347 </i>
    <i name="e_wo_entrp">     -3.32344347 </i>
    <i name="e_0_energy">     -3.32344347 </i>
   </energy>
  </scstep>
  <varray name="epsilon_rpa" >
   <v>       7.53194134       0.00000000      -0.06921408 </v>
   <v>       0.00000000       7.09335119       0.00000000 </v>
   <v>      -0.06921407       0.00000000       6.50231914 </v>
  </varray>
  <kpoints>
   <generation param="Monkhorst-Pack">
    <v type="int" name="divisions">       6        6        4 </v>
    <v name="usershift">      0.00000000       0.00000000       0.00000000 </v>
    <v name="genvec1">      0.16666667       0.00000000       0.00000000 </v>
    <v name="genvec2">     -0.00000000       0.16666667       0.00000000 </v>
    <v name="genvec3">      0.00000000       0.00000000       0.25000000 </v>
    <v name="shift">      0.50000000       0.50000000       0.50000000 </v>
   </generation>
   <varray name="kpointlist" >
    <v>       0.08333333       0.08333333       0.12500000 </v>
    <v>       0.25000000       0.08333333       0.12500000 </v>
    <v>       0.41666667       0.08333333       0.12500000 </v>
    <v>      -0.41666667       0.08333333       0.12500000 </v>
    <v>      -0.25000000       0.08333333       0.12500000 </v>
    <v>      -0.08333333       0.08333333       0.12500000 </v>
    <v>       0.08333333       0.25000000       0.12500000 </v>
    <v>       0.25000000       0.25000000       0.12500000 </v>
    <v>       0.41666667       0.25000000       0.12500000 </v>
    <v>      -0.41666667       0.25000000       0.12500000 </v>
    <v>      -0.25000000       0.25000000       0.12500000 </v>
    <v>      -0.08333333       0.25000000       0.12500000 </v>
    <v>       0.08333333       0.41666667       0.12500000 </v>
    <v>       0.25000000       0.41666667       0.12500000 </v>
    <v>       0.41666667       0.41666667       0.12500000 </v>
    <v>      -0.41666667       0.41666667       0.12500000 </v>
    <v>      -0.25000000       0.41666667       0.12500000 </v>
    <v>      -0.08333333       0.41666667       0.12500000 </v>
    <v>       0.08333333       0.08333333       0.37500000 </v>
    <v>       0.25000000       0.08333333       0.37500000 </v>
    <v>       0.41666667       0.08333333       0.37500000 </v>
    <v>      -0.41666667       0.08333333       0.37500000 </v>
    <v>      -0.25000000       0.08333333       0.37500000 </v>
    <v>      -0.08333333       0.08333333       0.37500000 </v>
    <v>       0.08333333       0.25000000       0.37500000 </v>
    <v>       0.25000000       0.25000000       0.37500000 </v>
    <v>       0.41666667       0.25000000       0.37500000 </v>
    <v>      -0.41666667       0.25000000       0.37500000 </v>
    <v>      -0.25000000       0.25000000       0.37500000 </v>
    <v>      -0.08333333       0.25000000       0.37500000 </v>
    <v>       0.08333333       0.41666667       0.37500000 </v>
    <v>       0.25000000       0.41666667       0.37500000 </v>
    <v>       0.41666667       0.41666667       0.37500000 </v>
    <v>      -0.41666667       0.41666667       0.37500000 </v>
    <v>      -0.25000000       0.41666667       0.37500000 </v>
    <v>      -0.08333333       0.41666667       0.37500000 </v>
   </varray>
   <varray name="weights" >
    <v>       0.02777778 </v>
    <v>       0.02777778 </v>
    <v>       0.02777778 </v>
    <v>       0.02777778 </v>
    <v>       0.02777778 </v>
    <v>       0.02777778 </v>
    <v>       0.02777778 </v>
    <v>       0.02777778 </v>
    <v>       0.02777778 </v>
    <v>       0.02777778 </v>
    <v>       0.02777778 </v>
    <v>       0.02777778 </v>
    <v>       0.02777778 </v>
    <v>       0.02777778 </v>
    <v>       0.02777778 </v>
    <v>       0.02777778 </v>
    <v>       0.02777778 </v>
    <v>       0.02777778 </v>
    <v>       0.02777778 </v>
    <v>       0.02777778 </v>
    <v>       0.02777778 </v>
    <v>       0.02777778 </v>
    <v>       0.02777778 </v>
    <v>       0.02777778 </v>
    <v>       0.02777778 </v>
    <v>       0.02777778 </v>
    <v>       0.02777778 </v>
    <v>       0.02777778 </v>
    <v>       0.02777778 </v>
    <v>       0.02777778 </v>
    <v>       0.02777778 </v>
    <v>       0.02777778 </v>
    <v>       0.02777778 </v>
    <v>       0.02777778 </v>
    <v>       0.02777778 </v>
    <v>       0.02777778 </v>
   </varray>
   <varray name="tetrahedronlist"  type="int" >
    <v type="int" >        2        1        2        8       19 </v>
    <v type="int" >        2        1        7        8       19 </v>
    <v type="int" >        2        7        8       19       25 </v>
    <v type="int" >        2        2        8       19       20 </v>
    <v type="int" >        2        8       19       20       26 </v>
    <v type="int" >        2        8       19       25       26 </v>
    <v type="int" >        2        2        3        9       20 </v>
    <v type="int" >        2        2        8        9       20 </v>
    <v type="int" >        2        8        9       20       26 </v>
    <v type="int" >        2        3        9       20       21 </v>
    <v type="int" >        2        9       20       21       27 </v>
    <v type="int" >        2        9       20       26       27 </v>
    <v type="int" >        2        3        4       10       21 </v>
    <v type="int" >        2        3        9       10       21 </v>
    <v type="int" >        2        9       10       21       27 </v>
    <v type="int" >        2        4       10       21       22 </v>
    <v type="int" >        2       10       21       22       28 </v>
    <v type="int" >        2       10       21       27       28 </v>
    <v type="int" >        2        4        5       11       22 </v>
    <v type="int" >        2        4       10       11       22 </v>
    <v type="int" >        2       10       11       22       28 </v>
    <v type="int" >        2        5       11       22       23 </v>
    <v type="int" >        2       11       22       23       29 </v>
    <v type="int" >        2       11       22       28       29 </v>
    <v type="int" >        2        5        6       12       23 </v>
    <v type="int" >        2        5       11       12       23 </v>
    <v type="int" >        2       11       12       23       29 </v>
    <v type="int" >        2        6       12       23       24 </v>
    <v type="int" >        2       12       23       24       30 </v>
    <v type="int" >        2       12       23       29       30 </v>
    <v type="int" >        2        1        6        7       24 </v>
    <v type="int" >        2        6        7       12       24 </v>
    <v type="int" >        2        7       12       24       30 </v>
    <v type="int" >        2        1        7       19       24 </v>
    <v type="int" >        2        7       19       24       25 </v>
    <v type="int" >        2        7       24       25       30 </v>
    <v type="int" >        2        7        8       14       25 </v>
    <v type="int" >        2        7       13       14       25 </v>
    <v type="int" >        2       13       14       25       31 </v>
    <v type="int" >        2        8       14       25       26 </v>
    <v type="int" >        2       14       25       26       32 </v>
    <v type="int" >        2       14       25       31       32 </v>
    <v type="int" >        2        8        9       15       26 </v>
    <v type="int" >        2        8       14       15       26 </v>
    <v type="int" >        2       14       15       26       32 </v>
    <v type="int" >        2        9       15       26       27 </v>
    <v type="int" >        2       15       26       27       33 </v>
    <v type="int" >        2       15       26       32       33 </v>
    <v type="int" >        2        9       10       16       27 </v>
    <v type="int" >        2        9       15       16       27 </v>
    <v type="int" >        2       15       16       27       33 </v>
    <v type="int" >        2       10       16       27       28 </v>
    <v type="int" >        2       16       27       28       34 </v>
    <v type="int" >        2       16       27       33       34 </v>
    <v type="int" >        2       10       11       17       28 </v>
    <v type="int" >        2       10       16       17       28 </v>
    <v type="int" >        2       16       17       28       34 </v>
    <v type="int" >        2       11       17       28       29 </v>
    <v type="int" >        2       17       28       29       35 </v>
    <v type="int" >        2       17       28       34       35 </v>
    <v type="int" >        2       11       12       18       29 </v>
    <v type="int" >        2       11       17       18       29 </v>
    <v type="int" >        2       17       18       29       35 </v>
    <v type="int" >        2       12       18       29       30 </v>
    <v type="int" >        2       18       29       30       36 </v>
    <v type="int" >        2       18       29       35       36 </v>
    <v type="int" >        2        7       12       13       30 </v>
    <v type="int" >        2       12       13       18       30 </v>
    <v type="int" >        2       13       18       30       36 </v>
    <v type="int" >        2        7       13       25       30 </v>
    <v type="int" >        2       13       25       30       31 </v>
    <v type="int" >        2       13       30       31       36 </v>
    <v type="int" >        2       13       14       14       31 </v>
    <v type="int" >        2       13       13       14       31 </v>
    <v type="int" >        2       13       14       31       31 </v>
[...]
       <r>  -17.2859    1.0000 </r>
       <r>  -17.1418    1.0000 </r>
       <r>  -16.9955    1.0000 </r>
       <r>  -16.7585    1.0000 </r>
       <r>  -16.6788    1.0000 </r>
       <r>  -16.5794    1.0000 </r>
       <r>  -16.5408    1.0000 </r>
       <r>  -16.5326    1.0000 </r>
       <r>  -16.3308    1.0000 </r>
       <r>  -16.3135    1.0000 </r>
       <r>  -16.2485    1.0000 </r>
       <r>  -16.2228    1.0000 </r>
       <r>   -5.4887    1.0000 </r>
       <r>   -5.4650    1.0000 </r>
       <r>   -5.1630    1.0000 </r>
       <r>   -5.0972    1.0000 </r>
       <r>   -4.6722    1.0000 </r>
       <r>   -4.6343    1.0000 </r>
       <r>   -4.5691    1.0000 </r>
       <r>   -4.5528    1.0000 </r>
       <r>   -4.3769    1.0000 </r>
       <r>   -4.1049    1.0000 </r>
       <r>   -4.0563    1.0000 </r>
       <r>   -3.8910    1.0000 </r>
       <r>   -3.7617    1.0000 </r>
       <r>   -3.6874    1.0000 </r>
       <r>   -3.6261    1.0000 </r>
       <r>   -3.5331    1.0000 </r>
       <r>   -3.4950    1.0000 </r>
       <r>   -3.3202    1.0000 </r>
       <r>   -3.2367    1.0000 </r>
       <r>   -3.0879    1.0000 </r>
       <r>   -3.0475    1.0000 </r>
       <r>   -2.8680    1.0000 </r>
       <r>   -2.7978    1.0000 </r>
       <r>   -2.5752    1.0000 </r>
       <r>   -0.9230    1.0000 </r>
       <r>   -0.9030    1.0000 </r>
       <r>   -0.7923    1.0000 </r>
       <r>   -0.7539    1.0000 </r>
       <r>   -0.6473    1.0000 </r>
       <r>   -0.5427    1.0000 </r>
       <r>   -0.4502    1.0000 </r>
       <r>   -0.3534    1.0000 </r>
       <r>   -0.3035    1.0000 </r>
       <r>   -0.2430    1.0000 </r>
       <r>   -0.1972    1.0000 </r>
       <r>   -0.1215    1.0000 </r>
       <r>    3.3544    0.0000 </r>
       <r>    3.5512    0.0000 </r>
       <r>    3.5861    0.0000 </r>
       <r>    3.9299    0.0000 </r>
       <r>    4.0454    0.0000 </r>
       <r>    4.0828    0.0000 </r>
       <r>    4.3404    0.0000 </r>
       <r>    4.4251    0.0000 </r>
       <r>    4.5600    0.0000 </r>
       <r>    4.6399    0.0000 </r>
       <r>    4.7267    0.0000 </r>
       <r>    5.0174    0.0000 </r>
       <r>    7.7776    0.0000 </r>
       <r>    8.2962    0.0000 </r>
       <r>    8.3101    0.0000 </r>
       <r>    8.6884    0.0000 </r>
       <r>    8.9685    0.0000 </r>
       <r>    9.4438    0.0000 </r>
       <r>    9.5067    0.0000 </r>
       <r>    9.7652    0.0000 </r>
       <r>    9.8455    0.0000 </r>
       <r>   10.1520    0.0000 </r>
       <r>   10.2809    0.0000 </r>
       <r>   10.4478    0.0000 </r>
       <r>   12.8181    0.0000 </r>
       <r>   12.9084    0.0000 </r>
       <r>   13.0253    0.0000 </r>
       <r>   13.5369    0.0000 </r>
       <r>   13.7533    0.0000 </r>
       <r>   14.0166    0.0000 </r>
       <r>   14.0715    0.0000 </r>
       <r>   14.4030    0.0000 </r>
       <r>   14.6634    0.0000 </r>
       <r>   14.6985    0.0000 </r>
       <r>   14.9159    0.0000 </r>
       <r>   15.0179    0.0000 </r>
      </set>
     </set>
    </set>
   </array>
  </eigenvalues>
  <separator name="orbital magnetization" >
   <v name="MAGDIPOLOUT">      0.00000000      0.00000000      0.00000000</v>
  </separator>
  <dos>
   <i name="efermi">      0.31258599 </i>
   <total>
    <array>
     <dimension dim="1">gridpoints</dimension>
     <dimension dim="2">spin</dimension>
     <field>energy</field>
     <field>total</field>
     <field>integrated</field>
     <set>
      <set comment="spin 1">
       <r>   -41.1974     0.0000     0.0000 </r>
       <r>   -40.9964     0.0000     0.0000 </r>
       <r>   -40.7954     0.0000     0.0000 </r>
       <r>   -40.5944     0.0000     0.0000 </r>
       <r>   -40.3934     0.0000     0.0000 </r>
       <r>   -40.1923     0.0000     0.0000 </r>
       <r>   -39.9913     0.0000     0.0000 </r>
       <r>   -39.7903     0.0000     0.0000 </r>
       <r>   -39.5893     0.0000     0.0000 </r>
       <r>   -39.3883     0.0000     0.0000 </r>
       <r>   -39.1873     0.0000     0.0000 </r>
       <r>   -38.9862     0.0000     0.0000 </r>
       <r>   -38.7852     0.0000     0.0000 </r>
       <r>   -38.5842     0.0000     0.0000 </r>
       <r>   -38.3832   198.2937    14.2066 </r>
       <r>   -38.1822     0.0000    24.0000 </r>
       <r>   -37.9812     0.0000    24.0000 </r>
       <r>   -37.7801     0.0000    24.0000 </r>
       <r>   -37.5791     0.0000    24.0000 </r>
       <r>   -37.3781     0.0000    24.0000 </r>
       <r>   -37.1771     0.0000    24.0000 </r>
       <r>   -36.9761     0.0000    24.0000 </r>
       <r>   -36.7751     0.0000    24.0000 </r>
       <r>   -36.5740     0.0000    24.0000 </r>
       <r>   -36.3730     0.0000    24.0000 </r>
       <r>   -36.1720     0.0000    24.0000 </r>
       <r>   -35.9710     0.0000    24.0000 </r>
       <r>   -35.7700     0.0000    24.0000 </r>
       <r>   -35.5690     0.0000    24.0000 </r>
       <r>   -35.3679     0.0000    24.0000 </r>
       <r>   -35.1669     0.0000    24.0000 </r>
       <r>   -34.9659     0.0000    24.0000 </r>
       <r>   -34.7649     0.0000    24.0000 </r>
       <r>   -34.5639     0.0000    24.0000 </r>
       <r>   -34.3628     0.0000    24.0000 </r>
       <r>   -34.1618     0.0000    24.0000 </r>
       <r>   -33.9608     0.0000    24.0000 </r>
       <r>   -33.7598     0.0000    24.0000 </r>
       <r>   -33.5588     0.0000    24.0000 </r>
       <r>   -33.3578     0.0000    24.0000 </r>
       <r>   -33.1567     0.0000    24.0000 </r>
       <r>   -32.9557     0.0000    24.0000 </r>
       <r>   -32.7547     0.0000    24.0000 </r>
       <r>   -32.5537     0.0000    24.0000 </r>
       <r>   -32.3527     0.0000    24.0000 </r>
       <r>   -32.1517     0.0000    24.0000 </r>
       <r>   -31.9506     0.0000    24.0000 </r>
       <r>   -31.7496     0.0000    24.0000 </r>
       <r>   -31.5486     0.0000    24.0000 </r>
       <r>   -31.3476     0.0000    24.0000 </r>
       <r>   -31.1466     0.0000    24.0000 </r>
       <r>   -30.9456     0.0000    24.0000 </r>
       <r>   -30.7445     0.0000    24.0000 </r>
       <r>   -30.5435     0.0000    24.0000 </r>
       <r>   -30.3425     0.0000    24.0000 </r>
       <r>   -30.1415     0.0000    24.0000 </r>
       <r>   -29.9405     0.0000    24.0000 </r>
       <r>   -29.7395     0.0000    24.0000 </r>
       <r>   -29.5384     0.0000    24.0000 </r>
       <r>   -29.3374     0.0000    24.0000 </r>
       <r>   -29.1364     0.0000    24.0000 </r>
       <r>   -28.9354     0.0000    24.0000 </r>
       <r>   -28.7344     0.0000    24.0000 </r>
       <r>   -28.5334     0.0000    24.0000 </r>
       <r>   -28.3323     0.0000    24.0000 </r>
       <r>   -28.1313     0.0000    24.0000 </r>
       <r>   -27.9303     0.0000    24.0000 </r>
       <r>   -27.7293     0.0000    24.0000 </r>
       <r>   -27.5283     0.0000    24.0000 </r>
       <r>   -27.3273     0.0000    24.0000 </r>
       <r>   -27.1262     0.0000    24.0000 </r>
       <r>   -26.9252     0.0000    24.0000 </r>
       <r>   -26.7242     0.0000    24.0000 </r>
       <r>   -26.5232     0.0000    24.0000 </r>
       <r>   -26.3222     0.0000    24.0000 </r>
       <r>   -26.1212     0.0000    24.0000 </r>
       <r>   -25.9201     0.0000    24.0000 </r>
       <r>   -25.7191     0.0000    24.0000 </r>
       <r>   -25.5181     0.0000    24.0000 </r>
       <r>   -25.3171     0.0000    24.0000 </r>
       <r>   -25.1161     0.0000    24.0000 </r>
       <r>   -24.9150     0.0000    24.0000 </r>
       <r>   -24.7140     0.0000    24.0000 </r>
       <r>   -24.5130     0.0000    24.0000 </r>
       <r>   -24.3120     0.0000    24.0000 </r>
       <r>   -24.1110     0.0000    24.0000 </r>
       <r>   -23.9100     0.0000    24.0000 </r>
       <r>   -23.7089     0.0000    24.0000 </r>
       <r>   -23.5079     0.0000    24.0000 </r>
       <r>   -23.3069     0.0000    24.0000 </r>
       <r>   -23.1059     0.0000    24.0000 </r>
       <r>   -22.9049     0.0000    24.0000 </r>
       <r>   -22.7039     0.0000    24.0000 </r>
       <r>   -22.5028     0.0000    24.0000 </r>
       <r>   -22.3018     0.0000    24.0000 </r>
       <r>   -22.1008     0.0000    24.0000 </r>
       <r>   -21.8998     0.0000    24.0000 </r>
       <r>   -21.6988     0.0000    24.0000 </r>
       <r>   -21.4978     0.0000    24.0000 </r>
       <r>   -21.2967     0.0000    24.0000 </r>
       <r>   -21.0957     0.0000    24.0000 </r>
       <r>   -20.8947     0.0000    24.0000 </r>
       <r>   -20.6937     0.0000    24.0000 </r>
       <r>   -20.4927     0.0000    24.0000 </r>
       <r>   -20.2917     0.0000    24.0000 </r>
       <r>   -20.0906     0.0000    24.0000 </r>
       <r>   -19.8896     0.0000    24.0000 </r>
       <r>   -19.6886     0.0000    24.0000 </r>
       <r>   -19.4876     0.0000    24.0000 </r>
       <r>   -19.2866     0.0000    24.0000 </r>
       <r>   -19.0856     0.0000    24.0000 </r>
       <r>   -18.8845     0.0000    24.0000 </r>
       <r>   -18.6835     0.0000    24.0000 </r>
       <r>   -18.4825     0.0000    24.0000 </r>
       <r>   -18.2815     0.0000    24.0000 </r>
       <r>   -18.0805     0.0000    24.0000 </r>
       <r>   -17.8795     0.0000    24.0000 </r>
       <r>   -17.6784     2.7933    24.2729 </r>
       <r>   -17.4774     8.8936    25.4197 </r>
       <r>   -17.2764     9.1153    27.5916 </r>
       <r>   -17.0754     7.3238    29.3973 </r>
       <r>   -16.8744    17.2009    31.3980 </r>
       <r>   -16.6734    15.0966    35.0655 </r>
       <r>   -16.4723    10.8089    36.9636 </r>
       <r>   -16.2713    17.9523    39.9103 </r>
       <r>   -16.0703    15.5594    43.1263 </r>
       <r>   -15.8693     2.5933    47.9301 </r>
       <r>   -15.6683     0.0000    48.0000 </r>
       <r>   -15.4672     0.0000    48.0000 </r>
       <r>   -15.2662     0.0000    48.0000 </r>
       <r>   -15.0652     0.0000    48.0000 </r>
       <r>   -14.8642     0.0000    48.0000 </r>
       <r>   -14.6632     0.0000    48.0000 </r>
       <r>   -14.4622     0.0000    48.0000 </r>
       <r>   -14.2611     0.0000    48.0000 </r>
       <r>   -14.0601     0.0000    48.0000 </r>
       <r>   -13.8591     0.0000    48.0000 </r>
       <r>   -13.6581     0.0000    48.0000 </r>
       <r>   -13.4571     0.0000    48.0000 </r>
       <r>   -13.2561     0.0000    48.0000 </r>
       <r>   -13.0550     0.0000    48.0000 </r>
       <r>   -12.8540     0.0000    48.0000 </r>
       <r>   -12.6530     0.0000    48.0000 </r>
       <r>   -12.4520     0.0000    48.0000 </r>
       <r>   -12.2510     0.0000    48.0000 </r>
       <r>   -12.0500     0.0000    48.0000 </r>
       <r>   -11.8489     0.0000    48.0000 </r>
       <r>   -11.6479     0.0000    48.0000 </r>
       <r>   -11.4469     0.0000    48.0000 </r>
       <r>   -11.2459     0.0000    48.0000 </r>
       <r>   -11.0449     0.0000    48.0000 </r>
       <r>   -10.8439     0.0000    48.0000 </r>
       <r>   -10.6428     0.0000    48.0000 </r>
       <r>   -10.4418     0.0000    48.0000 </r>
       <r>   -10.2408     0.0000    48.0000 </r>
       <r>   -10.0398     0.0000    48.0000 </r>
       <r>    -9.8388     0.0000    48.0000 </r>
       <r>    -9.6378     0.0000    48.0000 </r>
       <r>    -9.4367     0.0000    48.0000 </r>
       <r>    -9.2357     0.0000    48.0000 </r>
       <r>    -9.0347     0.0000    48.0000 </r>
       <r>    -8.8337     0.0000    48.0000 </r>
       <r>    -8.6327     0.0000    48.0000 </r>
       <r>    -8.4317     0.0000    48.0000 </r>
       <r>    -8.2306     0.0000    48.0000 </r>
       <r>    -8.0296     0.0000    48.0000 </r>
       <r>    -7.8286     0.0000    48.0000 </r>
       <r>    -7.6276     0.0000    48.0000 </r>
       <r>    -7.4266     0.0000    48.0000 </r>
       <r>    -7.2256     0.0000    48.0000 </r>
       <r>    -7.0245     0.0000    48.0000 </r>
       <r>    -6.8235     0.0000    48.0000 </r>
       <r>    -6.6225     0.0000    48.0000 </r>
       <r>    -6.4215     0.0000    48.0000 </r>
       <r>    -6.2205    10.4337    49.6758 </r>
       <r>    -6.0194     8.7324    51.8226 </r>
       <r>    -5.8184     6.0325    53.3536 </r>
       <r>    -5.6174     5.8757    54.5642 </r>
       <r>    -5.4164     6.1748    55.8364 </r>
       <r>    -5.2154     5.8040    57.0541 </r>
       <r>    -5.0144     5.3886    58.3744 </r>
       <r>    -4.8133    11.0501    60.2964 </r>
       <r>    -4.6123    15.9802    63.5496 </r>
       <r>    -4.4113     4.5899    65.5498 </r>
       <r>    -4.2103     4.2321    66.4082 </r>
       <r>    -4.0093    11.0215    68.0183 </r>
       <r>    -3.8083    13.9504    70.4929 </r>
       <r>    -3.6072    12.2321    73.1539 </r>
       <r>    -3.4062    12.9296    75.8251 </r>
       <r>    -3.2052    12.2695    78.1859 </r>
       <r>    -3.0042    13.5643    80.6820 </r>
       <r>    -2.8032    13.4849    83.4776 </r>
       <r>    -2.6022    12.2553    86.3648 </r>
       <r>    -2.4011     8.8063    88.5897 </r>
       <r>    -2.2001    10.0280    90.5403 </r>
       <r>    -1.9991     9.2850    92.7805 </r>
       <r>    -1.7981     6.6140    94.6225 </r>
       <r>    -1.5971     2.3569    95.5657 </r>
       <r>    -1.3961     6.0440    96.5430 </r>
       <r>    -1.1950    18.1893    99.2561 </r>
       <r>    -0.9940    13.1205   102.8225 </r>
       <r>    -0.7930    21.5600   106.4679 </r>
       <r>    -0.5920    16.9440   110.5374 </r>
       <r>    -0.3910     8.8160   112.8914 </r>
       <r>    -0.1900    11.5154   114.7840 </r>
       <r>     0.0111    13.8050   117.7851 </r>
       <r>     0.2121     4.1249   119.8246 </r>
       <r>     0.4131     0.0000   120.0000 </r>
       <r>     0.6141     0.0000   120.0000 </r>
       <r>     0.8151     0.0000   120.0000 </r>
       <r>     1.0161     0.0000   120.0000 </r>
       <r>     1.2172     0.0000   120.0000 </r>
       <r>     1.4182     0.0000   120.0000 </r>
       <r>     1.6192     0.0000   120.0000 </r>
       <r>     1.8202     0.0000   120.0000 </r>
       <r>     2.0212     0.8318   120.0198 </r>
       <r>     2.2222     2.5170   120.4528 </r>
       <r>     2.4233     3.1232   121.0243 </r>
       <r>     2.6243     3.4268   121.6692 </r>
       <r>     2.8253     4.8073   122.4488 </r>
       <r>     3.0263     4.6696   123.5478 </r>
       <r>     3.2273     4.6154   124.5099 </r>
       <r>     3.4283     4.4770   125.4319 </r>
       <r>     3.6294     5.9551   126.2731 </r>
       <r>     3.8304    10.5061   127.5006 </r>
       <r>     4.0314     8.1069   129.0667 </r>
       <r>     4.2324     8.4062   130.5073 </r>
       <r>     4.4334    10.1534   132.1523 </r>
       <r>     4.6345    11.2641   134.7034 </r>
       <r>     4.8355    11.6978   136.8155 </r>
       <r>     5.0365     9.5936   139.2014 </r>
       <r>     5.2375     7.5308   140.9555 </r>
       <r>     5.4385     8.7075   142.6465 </r>
       <r>     5.6395     2.1087   143.8626 </r>
       <r>     5.8406     0.0000   144.0000 </r>
       <r>     6.0416     0.0000   144.0000 </r>
       <r>     6.2426     0.0000   144.0000 </r>
       <r>     6.4436     2.0554   144.2067 </r>
       <r>     6.6446     2.5096   144.7937 </r>
       <r>     6.8456     2.5627   145.2891 </r>
       <r>     7.0467     4.8111   146.2023 </r>
       <r>     7.2477     4.6593   147.1750 </r>
       <r>     7.4487     4.1201   148.0786 </r>
       <r>     7.6497     4.1388   148.8951 </r>
       <r>     7.8507     3.9104   149.7494 </r>
       <r>     8.0517     3.8751   150.5676 </r>
       <r>     8.2528     3.7633   151.3335 </r>
       <r>     8.4538     3.8824   152.2374 </r>
       <r>     8.6548     3.9741   152.9515 </r>
       <r>     8.8558     3.4673   153.7716 </r>
       <r>     9.0568     1.9288   154.4928 </r>
       <r>     9.2578     2.9732   154.9952 </r>
       <r>     9.4589     5.6028   155.8213 </r>
       <r>     9.6599     3.7750   157.0173 </r>
       <r>     9.8609     4.9784   157.8245 </r>
       <r>    10.0619     5.0971   158.9199 </r>
       <r>    10.2629     9.5532   160.4957 </r>
       <r>    10.4639     7.4373   162.1327 </r>
       <r>    10.6650     6.9634   163.6373 </r>
       <r>    10.8660     7.0860   164.8410 </r>
       <r>    11.0670     3.4906   165.7862 </r>
       <r>    11.2680     2.9937   166.4322 </r>
       <r>    11.4690     2.6427   166.9959 </r>
       <r>    11.6700     2.9304   167.5553 </r>
       <r>    11.8711     1.3165   168.1183 </r>
       <r>    12.0721     3.9157   168.5863 </r>
       <r>    12.2731     3.7471   169.3210 </r>
       <r>    12.4741     5.2969   170.0752 </r>
       <r>    12.6751     5.6523   171.0826 </r>
       <r>    12.8761     4.9274   172.5399 </r>
       <r>    13.0772     5.8090   173.6405 </r>
       <r>    13.2782     5.8662   174.7496 </r>
       <r>    13.4792     6.9110   175.8875 </r>
       <r>    13.6802     9.1260   177.4777 </r>
       <r>    13.8812     5.2979   178.8558 </r>
       <r>    14.0823     2.0775   179.7536 </r>
       <r>    14.2833     3.3323   180.2992 </r>
       <r>    14.4843     4.6590   181.0646 </r>
       <r>    14.6853     7.3674   182.4455 </r>
       <r>    14.8863     9.6710   183.9035 </r>
       <r>    15.0873     8.7014   185.9039 </r>
       <r>    15.2884     9.1419   187.5241 </r>
       <r>    15.4894     8.6123   189.2114 </r>
       <r>    15.6904     5.7414   190.6948 </r>
       <r>    15.8914     2.5579   191.5710 </r>
       <r>    16.0924     0.8283   191.8700 </r>
       <r>    16.2934     0.2440   191.9924 </r>
       <r>    16.4945     0.0000   192.0000 </r>
       <r>    16.6955     0.0000   192.0000 </r>
       <r>    16.8965     0.0000   192.0000 </r>
       <r>    17.0975     0.0000   192.0000 </r>
       <r>    17.2985     0.0000   192.0000 </r>
       <r>    17.4995     0.0000   192.0000 </r>
       <r>    17.7006     0.0000   192.0000 </r>
       <r>    17.9016     0.0000   192.0000 </r>
       <r>    18.1026     0.0000   192.0000 </r>
       <r>    18.3036     0.0000   192.0000 </r>
       <r>    18.5046     0.0000   192.0000 </r>
       <r>    18.7056     0.0000   192.0000 </r>
       <r>    18.9067     0.0000   192.0000 </r>
       <r>    19.1077     0.0000   192.0000 </r>
      </set>
     </set>
    </array>
   </total>
  </dos>
 </calculation>
 <structure name="finalpos" >
  <crystal>
   <varray name="basis" >
    <v>       5.33214736       0.00000000      -0.00953230 </v>
    <v>       0.00000000       5.28964104       0.00000000 </v>
    <v>      -0.09271887       0.00000000       7.75031583 </v>
   </varray>
   <i name="volume">    218.59411038 </i>
   <varray name="rec_basis" >
    <v>       0.18754571      -0.00000000       0.00224365 </v>
    <v>      -0.00000000       0.18904875      -0.00000000 </v>
    <v>       0.00023067      -0.00000000       0.12902976 </v>
   </varray>
  </crystal>
  <varray name="positions" >
   <v>       0.75319375       0.76876586       0.78076296 </v>
   <v>       0.24680625       0.26876586       0.71923704 </v>
   <v>       0.24680625       0.23123414       0.21923704 </v>
   <v>       0.75319375       0.73123414       0.28076296 </v>
   <v>       0.52554489       0.02824833       0.77209045 </v>
   <v>       0.47445511       0.52824833       0.72790955 </v>
   <v>       0.47445511       0.97175167       0.22790955 </v>
   <v>       0.52554489       0.47175167       0.27209045 </v>
   <v>       0.96725815       0.47180210       0.72776737 </v>
   <v>       0.03274185       0.97180210       0.77223263 </v>
   <v>       0.03274185       0.52819790       0.27223263 </v>
   <v>       0.96725815       0.02819790       0.22776737 </v>
   <v>       0.75129717       0.70774107       0.00657792 </v>
   <v>       0.24870283       0.20774107       0.49342208 </v>
   <v>       0.24870283       0.29225893       0.99342208 </v>
   <v>       0.75129717       0.79225893       0.50657792 </v>
  </varray>
 </structure>
</modeling>
