1.0
7.24183300   0.00000000   0.00000000 0.00000000   7.24183300   0.00000000 0.00000000   0.00000000   6.57924200 
4.41592000   0.00000000   -0.00003000 0.00004000   4.41596000   -0.00004000 -0.00000000   0.00000000   4.09208000 
4.41592000   0.00000000   -0.00003000 0.00004000   4.41596000   -0.00004000 -0.00000000   0.00000000   4.09208000 
3.94859000   0.00000000   0.00003000 -0.00006000   3.94853000   0.00002000 -0.00000000   -0.00000000   3.61067000 
3.94859000   0.00000000   0.00003000 -0.00006000   3.94853000   0.00002000 -0.00000000   0.00000000   3.61067000 
-3.40953000   0.00000000   0.11571000 -0.00006000   -2.16934000   0.00004000 0.29774000   0.00000000   -2.56819000 
-2.47936000   0.53703000   -0.05780000 0.53705000   -3.09950000   0.10015000 -0.14887000   0.25785000   -2.56819000 
-2.47936000   -0.53703000   -0.05780000 -0.53710000   -3.09955000   -0.10005000 -0.14887000   -0.25785000   -2.56819000 
-2.47936000   0.53703000   -0.05780000 0.53705000   -3.09950000   0.10015000 -0.14887000   0.25785000   -2.56819000 
-2.47936000   -0.53703000   -0.05780000 -0.53710000   -3.09955000   -0.10005000 -0.14887000   -0.25785000   -2.56819000 
-3.40953000   0.00000000   0.11571000 -0.00006000   -2.16934000   0.00004000 0.29774000   0.00000000   -2.56819000 
