  10
   1   1
     6.268223442599999    -0.000000000000000     0.000000000000000
    -0.000000000000000     6.268223442599999     0.000000000000000
     0.000000000000000     0.000000000000000    16.739222767199998
   1   2
    -0.418814728200000    -0.000000000000000    -0.000000000000000
    -0.000000000000000    -0.418814728200000    -0.000000000000000
    -0.000000000000000    -0.000000000000000    -3.785006053800000
   1   3
    -4.312501113370963    -0.000000000000000     0.000000000000000
    -0.000000000000000    -4.312501113370963    -0.000000000000000
     0.000000000000000    -0.000000000000000     2.835080769517379
   1   4
     1.046635310137731    -0.000000000000000    -0.000000000000000
    -0.000000000000000     1.046635310137731     0.000000000000000
    -0.000000000000000     0.000000000000000    -6.493544466499545
   1   5
    -0.383885703899506    -0.000000000000000    -0.180270964058550
    -0.000000000000000     1.741213796872773     0.000000000000000
     0.149808406416914     0.000000000000000     0.291454297625890
   1   6
     1.209939066241109     0.920195219166726     0.090135192906464
     0.920195219166726     0.147389026732158    -0.156118800895818
    -0.074904203208457     0.129738079103773     0.291454297625890
   1   7
     1.209939066241109    -0.920195219166726     0.090135192906464
    -0.920195219166726     0.147389026732158     0.156118800895818
    -0.074904203208457    -0.129738079103773     0.291454297625890
   1   8
    -1.270169708531698     0.466744832137404     0.907381296170984
     0.466744832137404    -1.809120071557111    -1.571630546655842
     1.133837316348348    -1.963863804362502    -3.390270275897019
   1   9
    -1.270169708531698    -0.466744832137404     0.907381296170984
    -0.466744832137404    -1.809120071557111     1.571630546655842
     1.133837316348348     1.963863804362502    -3.390270275897019
   1  10
    -2.078595253069818    -0.000000000000000    -1.814762592341969
    -0.000000000000000    -1.000694527018992    -0.000000000000000
    -2.267674632696695    -0.000000000000000    -3.390270275897019
   2   1
    -0.418814728200000    -0.000000000000000    -0.000000000000000
    -0.000000000000000    -0.418814728200000    -0.000000000000000
    -0.000000000000000    -0.000000000000000    -3.785006053800000
   2   2
     6.268223442599999    -0.000000000000000     0.000000000000000
    -0.000000000000000     6.268223442599999     0.000000000000000
     0.000000000000000     0.000000000000000    16.739222767199998
   2   3
     1.046635310137731    -0.000000000000000    -0.000000000000000
    -0.000000000000000     1.046635310137731     0.000000000000000
    -0.000000000000000     0.000000000000000    -6.493544466499545
   2   4
    -4.312501113370963    -0.000000000000000     0.000000000000000
    -0.000000000000000    -4.312501113370963    -0.000000000000000
     0.000000000000000    -0.000000000000000     2.835080769517379
   2   5
    -2.078595253069818    -0.000000000000000    -1.814762592341969
    -0.000000000000000    -1.000694527018992    -0.000000000000000
    -2.267674632696695    -0.000000000000000    -3.390270275897019
   2   6
    -1.270169708531698     0.466744832137404     0.907381296170984
     0.466744832137404    -1.809120071557111    -1.571630546655842
     1.133837316348348    -1.963863804362502    -3.390270275897019
   2   7
    -1.270169708531698    -0.466744832137404     0.907381296170984
    -0.466744832137404    -1.809120071557111     1.571630546655842
     1.133837316348348     1.963863804362502    -3.390270275897019
   2   8
     1.209939066241109     0.920195219166726     0.090135192906464
     0.920195219166726     0.147389026732158    -0.156118800895818
    -0.074904203208457     0.129738079103773     0.291454297625890
   2   9
     1.209939066241109    -0.920195219166726     0.090135192906464
    -0.920195219166726     0.147389026732158     0.156118800895818
    -0.074904203208457    -0.129738079103773     0.291454297625890
   2  10
    -0.383885703899506    -0.000000000000000    -0.180270964058550
    -0.000000000000000     1.741213796872773     0.000000000000000
     0.149808406416914     0.000000000000000     0.291454297625890
   3   1
    -4.312501113370963    -0.000000000000000     0.000000000000000
    -0.000000000000000    -4.312501113370963    -0.000000000000000
     0.000000000000000    -0.000000000000000     2.835080769517379
   3   2
     1.046635310137731    -0.000000000000000    -0.000000000000000
    -0.000000000000000     1.046635310137731     0.000000000000000
    -0.000000000000000     0.000000000000000    -6.493544466499545
   3   3
    16.079586077169999    -0.000000000000000     0.000000000000000
    -0.000000000000000    16.079586077169999     0.000000000000000
     0.000000000000000     0.000000000000000    15.572180898560001
   3   4
    -3.717248921100000    -0.000000000000000    -0.000000000000000
    -0.000000000000000    -3.717248921100000    -0.000000000000000
    -0.000000000000000    -0.000000000000000    -3.054762766660000
   3   5
    -1.305564397098917    -0.000000000000000     0.075401036656213
    -0.000000000000000    -0.173133146025940    -0.000000000000000
     0.952939406449060    -0.000000000000000    -0.613013578667662
   3   6
    -0.456241108255885     0.490356937152488    -0.037700518328106
     0.490356937152488    -1.022456434868972     0.065299219223905
    -0.476469852686231     0.825269819489731    -0.613013578667662
   3   7
    -0.456241108255885    -0.490356937152488    -0.037700518328106
    -0.490356937152488    -1.022456434868972    -0.065299219223905
    -0.476469852686231    -0.825269819489731    -0.613013578667662
   3   8
    -1.235927201471578     1.828876144656351    -1.702044439991593
     1.828876144656351    -3.347731655393536     2.948027424691638
    -1.321063276546384     2.288148635127452    -2.338622449327604
   3   9
    -1.235927201471578    -1.828876144656351    -1.702044439991593
    -1.828876144656351    -3.347731655393536    -2.948027424691638
    -1.321063276546384    -2.288148635127452    -2.338622449327604
   3  10
    -4.403633732892815    -0.000000000000000     3.404088879983186
    -0.000000000000000    -0.180025123972300    -0.000000000000000
     2.642126553092768    -0.000000000000000    -2.338622449327604
   4   1
     1.046635310137731    -0.000000000000000    -0.000000000000000
    -0.000000000000000     1.046635310137731     0.000000000000000
    -0.000000000000000     0.000000000000000    -6.493544466499545
   4   2
    -4.312501113370963    -0.000000000000000     0.000000000000000
    -0.000000000000000    -4.312501113370963    -0.000000000000000
     0.000000000000000    -0.000000000000000     2.835080769517379
   4   3
    -3.717248921100000    -0.000000000000000    -0.000000000000000
    -0.000000000000000    -3.717248921100000    -0.000000000000000
    -0.000000000000000    -0.000000000000000    -3.054762766660000
   4   4
    16.079586077169999    -0.000000000000000     0.000000000000000
    -0.000000000000000    16.079586077169999     0.000000000000000
     0.000000000000000     0.000000000000000    15.572180898560001
   4   5
    -4.403633732892815    -0.000000000000000     3.404088879983186
    -0.000000000000000    -0.180025123972300    -0.000000000000000
     2.642126553092768    -0.000000000000000    -2.338622449327604
   4   6
    -1.235927201471578     1.828876144656351    -1.702044439991593
     1.828876144656351    -3.347731655393536     2.948027424691638
    -1.321063276546384     2.288148635127452    -2.338622449327604
   4   7
    -1.235927201471578    -1.828876144656351    -1.702044439991593
    -1.828876144656351    -3.347731655393536    -2.948027424691638
    -1.321063276546384    -2.288148635127452    -2.338622449327604
   4   8
    -0.456241108255885     0.490356937152488    -0.037700518328106
     0.490356937152488    -1.022456434868972     0.065299219223905
    -0.476469852686231     0.825269819489731    -0.613013578667662
   4   9
    -0.456241108255885    -0.490356937152488    -0.037700518328106
    -0.490356937152488    -1.022456434868972    -0.065299219223905
    -0.476469852686231    -0.825269819489731    -0.613013578667662
   4  10
    -1.305564397098917    -0.000000000000000     0.075401036656213
    -0.000000000000000    -0.173133146025940    -0.000000000000000
     0.952939406449060    -0.000000000000000    -0.613013578667662
   5   1
    -0.383885703899506    -0.000000000000000     0.149808406416914
    -0.000000000000000     1.741213796872773     0.000000000000000
    -0.180270964058550     0.000000000000000     0.291454297625890
   5   2
    -2.078595253069818    -0.000000000000000    -2.267674632696695
    -0.000000000000000    -1.000694527018992    -0.000000000000000
    -1.814762592341969    -0.000000000000000    -3.390270275897019
   5   3
    -1.305564397098917    -0.000000000000000     0.952939406449060
    -0.000000000000000    -0.173133146025940    -0.000000000000000
     0.075401036656213    -0.000000000000000    -0.613013578667662
   5   4
    -4.403633732892815    -0.000000000000000     2.642126553092768
    -0.000000000000000    -0.180025123972300    -0.000000000000000
     3.404088879983186    -0.000000000000000    -2.338622449327604
   5   5
    15.668409120000000    -0.000000000000000    -3.049766400000000
    -0.000000000000000     2.679127520000000     0.000000000000000
    -3.049766400000000     0.000000000000000     9.945640480000000
   5   6
    -3.396491840000000     2.431202240000000    -0.314872160000000
     2.001202400000000    -0.837441760000000     0.034722400000000
     0.187506560000000    -0.255326080000000     0.703952960000000
   5   7
    -3.396491840000000    -2.431202240000000    -0.314872160000000
    -2.001202400000000    -0.837441760000000    -0.034722400000000
     0.187506560000000     0.255326080000000     0.703952960000000
   5   8
    -0.118646080000000    -0.888668800000000     0.913057600000000
    -0.245870560000000    -0.773672800000000     0.997148960000000
     0.407027520000000     1.289305600000000    -2.551340800000000
   5   9
    -0.118646080000000     0.888668800000000     0.913057600000000
     0.245870560000000    -0.773672800000000    -0.997148960000000
     0.407027520000000    -1.289305600000000    -2.551340800000000
   5  10
    -0.467630080000000    -0.000000000000000     0.376365120000000
    -0.000000000000000     0.154557440000000     0.000000000000000
     0.376365120000000     0.000000000000000    -0.201529760000000
   6   1
     1.209939066241109     0.920195219166726    -0.074904203208457
     0.920195219166726     0.147389026732158     0.129738079103773
     0.090135192906464    -0.156118800895818     0.291454297625890
   6   2
    -1.270169708531698     0.466744832137404     1.133837316348348
     0.466744832137404    -1.809120071557111    -1.963863804362502
     0.907381296170984    -1.571630546655842    -3.390270275897019
   6   3
    -0.456241108255885     0.490356937152488    -0.476469852686231
     0.490356937152488    -1.022456434868972     0.825269819489731
    -0.037700518328106     0.065299219223905    -0.613013578667662
   6   4
    -1.235927201471578     1.828876144656351    -1.321063276546384
     1.828876144656351    -3.347731655393536     2.288148635127452
    -1.702044439991593     2.948027424691638    -2.338622449327604
   6   5
    -3.396491840000000     2.001202400000000     0.187506560000000
     2.431202240000000    -0.837441760000000    -0.255326080000000
    -0.314872160000000     0.034722400000000     0.703952960000000
   6   6
     5.926448000000000    -5.624524000000000     1.524883200000000
    -5.624524000000000    12.421088800000000    -2.641175200000000
     1.524883200000000    -2.641175200000000     9.945640480000000
   6   7
     0.442083200000000     0.214999840000000     0.127365600000000
    -0.214999840000000    -4.676016800000000    -0.290048480000000
     0.127365600000000     0.290048480000000     0.703952960000000
   6   8
    -0.000989440000000     0.269415040000000    -0.188182560000000
     0.269415040000000    -0.312083200000000     0.325941760000000
    -0.188182560000000     0.325941760000000    -0.201529760000000
   6   9
    -1.101186080000000    -0.321399200000000    -1.320085120000000
     0.321399200000000     0.208867200000000     0.292156640000000
    -1.320085120000000    -0.292156640000000    -2.551340800000000
   6  10
    -0.118646080000000    -0.245870560000000     0.407027520000000
    -0.888668800000000    -0.773672800000000     1.289305600000000
     0.913057600000000     0.997148960000000    -2.551340800000000
   7   1
     1.209939066241109    -0.920195219166726    -0.074904203208457
    -0.920195219166726     0.147389026732158    -0.129738079103773
     0.090135192906464     0.156118800895818     0.291454297625890
   7   2
    -1.270169708531698    -0.466744832137404     1.133837316348348
    -0.466744832137404    -1.809120071557111     1.963863804362502
     0.907381296170984     1.571630546655842    -3.390270275897019
   7   3
    -0.456241108255885    -0.490356937152488    -0.476469852686231
    -0.490356937152488    -1.022456434868972    -0.825269819489731
    -0.037700518328106    -0.065299219223905    -0.613013578667662
   7   4
    -1.235927201471578    -1.828876144656351    -1.321063276546384
    -1.828876144656351    -3.347731655393536    -2.288148635127452
    -1.702044439991593    -2.948027424691638    -2.338622449327604
   7   5
    -3.396491840000000    -2.001202400000000     0.187506560000000
    -2.431202240000000    -0.837441760000000     0.255326080000000
    -0.314872160000000    -0.034722400000000     0.703952960000000
   7   6
     0.442083200000000    -0.214999840000000     0.127365600000000
     0.214999840000000    -4.676016800000000     0.290048480000000
     0.127365600000000    -0.290048480000000     0.703952960000000
   7   7
     5.926448000000000     5.624524000000000     1.524883200000000
     5.624524000000000    12.421088800000000     2.641175200000000
     1.524883200000000     2.641175200000000     9.945640480000000
   7   8
    -1.101186080000000     0.321399200000000    -1.320085120000000
    -0.321399200000000     0.208867200000000    -0.292156640000000
    -1.320085120000000     0.292156640000000    -2.551340800000000
   7   9
    -0.000989440000000    -0.269415040000000    -0.188182560000000
    -0.269415040000000    -0.312083200000000    -0.325941760000000
    -0.188182560000000    -0.325941760000000    -0.201529760000000
   7  10
    -0.118646080000000     0.245870560000000     0.407027520000000
     0.888668800000000    -0.773672800000000    -1.289305600000000
     0.913057600000000    -0.997148960000000    -2.551340800000000
   8   1
    -1.270169708531698     0.466744832137404     1.133837316348348
     0.466744832137404    -1.809120071557111    -1.963863804362502
     0.907381296170984    -1.571630546655842    -3.390270275897019
   8   2
     1.209939066241109     0.920195219166726    -0.074904203208457
     0.920195219166726     0.147389026732158     0.129738079103773
     0.090135192906464    -0.156118800895818     0.291454297625890
   8   3
    -1.235927201471578     1.828876144656351    -1.321063276546384
     1.828876144656351    -3.347731655393536     2.288148635127452
    -1.702044439991593     2.948027424691638    -2.338622449327604
   8   4
    -0.456241108255885     0.490356937152488    -0.476469852686231
     0.490356937152488    -1.022456434868972     0.825269819489731
    -0.037700518328106     0.065299219223905    -0.613013578667662
   8   5
    -0.118646080000000    -0.245870560000000     0.407027520000000
    -0.888668800000000    -0.773672800000000     1.289305600000000
     0.913057600000000     0.997148960000000    -2.551340800000000
   8   6
    -0.000989440000000     0.269415040000000    -0.188182560000000
     0.269415040000000    -0.312083200000000     0.325941760000000
    -0.188182560000000     0.325941760000000    -0.201529760000000
   8   7
    -1.101186080000000    -0.321399200000000    -1.320085120000000
     0.321399200000000     0.208867200000000     0.292156640000000
    -1.320085120000000    -0.292156640000000    -2.551340800000000
   8   8
     5.926448000000000    -5.624524000000000     1.524883200000000
    -5.624524000000000    12.421088800000000    -2.641175200000000
     1.524883200000000    -2.641175200000000     9.945640480000000
   8   9
     0.442083200000000     0.214999840000000     0.127365600000000
    -0.214999840000000    -4.676016800000000    -0.290048480000000
     0.127365600000000     0.290048480000000     0.703952960000000
   8  10
    -3.396491840000000     2.001202400000000     0.187506560000000
     2.431202240000000    -0.837441760000000    -0.255326080000000
    -0.314872160000000     0.034722400000000     0.703952960000000
   9   1
    -1.270169708531698    -0.466744832137404     1.133837316348348
    -0.466744832137404    -1.809120071557111     1.963863804362502
     0.907381296170984     1.571630546655842    -3.390270275897019
   9   2
     1.209939066241109    -0.920195219166726    -0.074904203208457
    -0.920195219166726     0.147389026732158    -0.129738079103773
     0.090135192906464     0.156118800895818     0.291454297625890
   9   3
    -1.235927201471578    -1.828876144656351    -1.321063276546384
    -1.828876144656351    -3.347731655393536    -2.288148635127452
    -1.702044439991593    -2.948027424691638    -2.338622449327604
   9   4
    -0.456241108255885    -0.490356937152488    -0.476469852686231
    -0.490356937152488    -1.022456434868972    -0.825269819489731
    -0.037700518328106    -0.065299219223905    -0.613013578667662
   9   5
    -0.118646080000000     0.245870560000000     0.407027520000000
     0.888668800000000    -0.773672800000000    -1.289305600000000
     0.913057600000000    -0.997148960000000    -2.551340800000000
   9   6
    -1.101186080000000     0.321399200000000    -1.320085120000000
    -0.321399200000000     0.208867200000000    -0.292156640000000
    -1.320085120000000     0.292156640000000    -2.551340800000000
   9   7
    -0.000989440000000    -0.269415040000000    -0.188182560000000
    -0.269415040000000    -0.312083200000000    -0.325941760000000
    -0.188182560000000    -0.325941760000000    -0.201529760000000
   9   8
     0.442083200000000    -0.214999840000000     0.127365600000000
     0.214999840000000    -4.676016800000000     0.290048480000000
     0.127365600000000    -0.290048480000000     0.703952960000000
   9   9
     5.926448000000000     5.624524000000000     1.524883200000000
     5.624524000000000    12.421088800000000     2.641175200000000
     1.524883200000000     2.641175200000000     9.945640480000000
   9  10
    -3.396491840000000    -2.001202400000000     0.187506560000000
    -2.431202240000000    -0.837441760000000     0.255326080000000
    -0.314872160000000    -0.034722400000000     0.703952960000000
  10   1
    -2.078595253069818    -0.000000000000000    -2.267674632696695
    -0.000000000000000    -1.000694527018992    -0.000000000000000
    -1.814762592341969    -0.000000000000000    -3.390270275897019
  10   2
    -0.383885703899506    -0.000000000000000     0.149808406416914
    -0.000000000000000     1.741213796872773     0.000000000000000
    -0.180270964058550     0.000000000000000     0.291454297625890
  10   3
    -4.403633732892815    -0.000000000000000     2.642126553092768
    -0.000000000000000    -0.180025123972300    -0.000000000000000
     3.404088879983186    -0.000000000000000    -2.338622449327604
  10   4
    -1.305564397098917    -0.000000000000000     0.952939406449060
    -0.000000000000000    -0.173133146025940    -0.000000000000000
     0.075401036656213    -0.000000000000000    -0.613013578667662
  10   5
    -0.467630080000000    -0.000000000000000     0.376365120000000
    -0.000000000000000     0.154557440000000     0.000000000000000
     0.376365120000000     0.000000000000000    -0.201529760000000
  10   6
    -0.118646080000000    -0.888668800000000     0.913057600000000
    -0.245870560000000    -0.773672800000000     0.997148960000000
     0.407027520000000     1.289305600000000    -2.551340800000000
  10   7
    -0.118646080000000     0.888668800000000     0.913057600000000
     0.245870560000000    -0.773672800000000    -0.997148960000000
     0.407027520000000    -1.289305600000000    -2.551340800000000
  10   8
    -3.396491840000000     2.431202240000000    -0.314872160000000
     2.001202400000000    -0.837441760000000     0.034722400000000
     0.187506560000000    -0.255326080000000     0.703952960000000
  10   9
    -3.396491840000000    -2.431202240000000    -0.314872160000000
    -2.001202400000000    -0.837441760000000    -0.034722400000000
     0.187506560000000     0.255326080000000     0.703952960000000
  10  10
    15.668409120000000    -0.000000000000000    -3.049766400000000
    -0.000000000000000     2.679127520000000     0.000000000000000
    -3.049766400000000     0.000000000000000     9.945640480000000
