  ABINIT 8.4.2
  
  Give name for formatted input file: 
abinit.in
  Give name for formatted output file:
abinit.out
  Give root name for generic input files:
abinit-i
  Give root name for generic output files:
abinit-o
  Give root name for generic temporary files:
abinit-t

--- !COMMENT
src_file: isfile.F90
src_line: 109
message: |
    Output file abinit.out
     already exists.
...


--- !COMMENT
src_file: isfile.F90
src_line: 133
message: |
    Renaming old abinit.out to abinit.out0004
...


.Version 8.4.2 of ABINIT 
.(MPI version, prepared for a x86_64_linux_gnu5.4 computer) 

.Copyright (C) 1998-2017 ABINIT group . 
 ABINIT comes with ABSOLUTELY NO WARRANTY.
 It is free software, and you are welcome to redistribute it
 under certain conditions (GNU General Public License,
 see ~abinit/COPYING or http://www.gnu.org/copyleft/gpl.txt).

 ABINIT is a project of the Universite Catholique de Louvain,
 Corning Inc. and other collaborators, see ~abinit/doc/developers/contributors.txt .
 Please read ~abinit/doc/users/acknowledgments.html for suggested
 acknowledgments of the ABINIT effort.
 For more information, see http://www.abinit.org .

.Starting date : Tue 18 Jul 2017.
- ( at 10h10 )
  

 ++++++++++++++++++++++++++++++++++++++++++++++++++++++++++++++++++++++++++++++

 === Build Information === 
  Version       : 8.4.2
  Build target  : x86_64_linux_gnu5.4
  Build date    : 20170610

 === Compiler Suite === 
  C compiler       : gnu5.4
  C++ compiler     : gnu5.4
  Fortran compiler : gnu5.4
  CFLAGS           : -m64 -g -O2 -mtune=native -march=native
  CXXFLAGS         : -m64 -g -O2 -mtune=native -march=native
  FCFLAGS          : -m64 -g -ffree-line-length-none
  FC_LDFLAGS       : 

 === Optimizations === 
  Debug level        : basic
  Optimization level : standard
  Architecture       : intel_xeon

 === Multicore === 
  Parallel build : yes
  Parallel I/O   : yes
  openMP support : no
  GPU support    : no

 === Connectors / Fallbacks === 
  Connectors on : yes
  Fallbacks on  : yes
  DFT flavor    : libxc-fallback+atompaw-fallback+wannier90-fallback
  FFT flavor    : none
  LINALG flavor : netlib
  MATH flavor   : none
  TIMER flavor  : abinit
  TRIO flavor   : netcdf

 === Experimental features === 
  Bindings            : @enable_bindings@
  Exports             : no
  GW double-precision : no

 ++++++++++++++++++++++++++++++++++++++++++++++++++++++++++++++++++++++++++++++


 ++++++++++++++++++++++++++++++++++++++++++++++++++++++++++++++++++++++++++++++
 Default optimizations:
   -O2 -mtune=native -march=native


 Optimizations for 20_datashare:
   -O0


 ++++++++++++++++++++++++++++++++++++++++++++++++++++++++++++++++++++++++++++++


 ++++++++++++++++++++++++++++++++++++++++++++++++++++++++++++++++++++++++++++++
 CPP options activated during the build:

                    CC_GNU                   CXX_GNU                    FC_GNU
 
              HAVE_ATOMPAW HAVE_FC_ALLOCATABLE_DT...             HAVE_FC_ASYNC
 
         HAVE_FC_BACKTRACE  HAVE_FC_COMMAND_ARGUMENT      HAVE_FC_COMMAND_LINE
 
        HAVE_FC_CONTIGUOUS           HAVE_FC_CPUTIME              HAVE_FC_EXIT
 
             HAVE_FC_FLUSH             HAVE_FC_GAMMA            HAVE_FC_GETENV
 
   HAVE_FC_IEEE_EXCEPTIONS          HAVE_FC_INT_QUAD             HAVE_FC_IOMSG
 
     HAVE_FC_ISO_C_BINDING  HAVE_FC_ISO_FORTRAN_2008        HAVE_FC_LONG_LINES
 
        HAVE_FC_MOVE_ALLOC           HAVE_FC_PRIVATE         HAVE_FC_PROTECTED
 
         HAVE_FC_STREAM_IO            HAVE_FC_SYSTEM          HAVE_FORTRAN2003
 
        HAVE_LIBPAW_ABINIT      HAVE_LIBTETRA_ABINIT                HAVE_LIBXC
 
               HAVE_LINALG        HAVE_LINALG_SERIAL                  HAVE_MPI
 
                 HAVE_MPI2       HAVE_MPI_IALLREDUCE        HAVE_MPI_IALLTOALL
 
       HAVE_MPI_IALLTOALLV        HAVE_MPI_INTEGER16               HAVE_MPI_IO
 
 HAVE_MPI_TYPE_CREATE_S...               HAVE_NETCDF           HAVE_NETCDF_MPI
 
             HAVE_OS_LINUX         HAVE_TIMER_ABINIT            HAVE_WANNIER90
 
              USE_MACROAVE                                                      
 ++++++++++++++++++++++++++++++++++++++++++++++++++++++++++++++++++++++++++++++

- input  file    -> abinit.in
- output file    -> abinit.out
- root for input  files -> abinit-i
- root for output files -> abinit-o


--- !WARNING
src_file: m_nctk.F90
src_line: 568
message: |
    netcdf lib does not support MPI-IO and: NetCDF: Parallel operation on file opened for non-parallel access
...

  Asked to delete not existent file: __TMP_FILE__

--- !WARNING
src_file: m_nctk.F90
src_line: 588
message: |
    The netcdf library does not support parallel IO, see message above
    Abinit won't be able to produce files in parallel e.g. when paral_kgb==1 is used.
    Action: install a netcdf4+HDF5 library with MPI-IO support.
...

-instrng: 31 lines of input have been read from file abinit.in


 Please give name of formatted atomic psp file
 iofn2 : for atom type 1, psp file is Bi.psp

 Please give name of formatted atomic psp file
 iofn2 : for atom type 2, psp file is Fe.psp

 Please give name of formatted atomic psp file
 iofn2 : for atom type 3, psp file is O.psp
  read the values zionpsp=  5.0 , pspcod=  10 , lmax=   2
  read the values zionpsp= 16.0 , pspcod=  10 , lmax=   2
  read the values zionpsp=  6.0 , pspcod=  10 , lmax=   1

 inpspheads: deduce mpsang = 3, n1xccc = 0.
 invars1 : treat image number: 1

 symlatt : the Bravais lattice is tP (primitive tetragonal)
  xred   is defined in input file
 ingeo : takes atomic coordinates from input array xred
  symfind : exit, nsym=           4
    symrel matrices, symafm and tnons are :
   1       1   0   0     0   1   0     0   0   1       1      0.0000  0.0000  0.0000
   2       1   0   0     0   1   0     0   0   1       1      0.5000  0.5000  0.5000
   3       0   1   0     1   0   0     0   0   1       1      0.0000 -0.0000  0.0000
   4       0   1   0     1   0   0     0   0   1       1      0.5000  0.5000  0.5000

 symlatt : the Bravais lattice is tP (primitive tetragonal)

--- !COMMENT
src_file: chkprimit.F90
src_line: 106
message: |
    According to the symmetry finder, the unit cell is
    not primitive, with multiplicity=2.
    This is allowed, as the input variable chkprim is 0.
...

 ingeo : angdeg(1:3)=   90.00000000   90.00000000   90.00000000
 invars2: take the default value of fband=  1.25000000E-01
 chkneu : initialized the occupation numbers for occopt=    1, spin-unpolarized or antiferromagnetic case :
  2.00  2.00  2.00  2.00  2.00  2.00  2.00  2.00  2.00  2.00  2.00  2.00
  2.00  2.00  2.00  2.00  2.00  2.00  2.00  2.00  2.00  2.00  2.00  2.00
  2.00  2.00  2.00  2.00  2.00  2.00  2.00  2.00  2.00  2.00  2.00  2.00
  2.00  2.00  2.00  0.00  0.00
mpi_setup: mkmem  undefined in the input file.Use default mkmem  = nkpt
 mpi_setup: With nkpt_me=1 and mkmem  = 1, ground state wf handled in core.
mpi_setup: mkqmem undefined in the input file.Use default mkqmem = nkpt
 mpi_setup: With nkpt_me=1 and mkqmem = 1, ground state wf handled in core.
mpi_setup: mk1mem undefined in the input file.Use default mk1mem = nkpt
 mpi_setup: With nkpt_me=1 and mk1mem = 1, ground state wf handled in core.
 For input ecut=  1.000000E+01 best grid ngfft=      24      24      45
       max ecut=  1.012253E+01

 ==== FFT mesh ====
  FFT mesh divisions ........................    24   24   45
  Augmented FFT divisions ...................    25   25   45
  FFT algorithm .............................   112
  FFT cache size ............................    16
 getmpw: optimal value of mpw= 652

 Symmetries : the unit cell is not primitive

 getdim_nloc : deduce lmnmax  =  14, lnmax  =   6,
                      lmnmaxso=  25, lnmaxso=   9.
memory : analysis of memory needs
================================================================================
 Values of the parameters that define the memory need of the present run
     intxc =       0    ionmov =       0      iscf =       5    lmnmax =       6
     lnmax =       6     mgfft =      45  mpssoang =       3    mqgrid =    3001
     natom =      10  nloc_mem =       1    nspden =       1   nspinor =       1
    nsppol =       1      nsym =       4    n1xccc =       0    ntypat =       3
    occopt =       1   xclevel =       1
-    mband =          41        mffmem =           1         mkmem =           1
       mpw =         652          nfft =       25920          nkpt =           1
================================================================================
P This job should need less than                       7.939 Mbytes of memory.
  Rough estimation (10% accuracy) of disk space for files :
_ WF disk file :      0.410 Mbytes ; DEN or POT disk file :      0.200 Mbytes.
================================================================================

 Biggest array : f_fftgr(disk), with      1.9795 MBytes.
 memana : allocated an array of      1.980 Mbytes, for testing purposes.
 memana: allocated       7.939Mbytes, for testing purposes. 
 The job will continue.
--------------------------------------------------------------------------------
------------- Echo of variables that govern the present computation ------------
--------------------------------------------------------------------------------
-
- outvars: echo of selected default values                                      
-   iomode0 =  0 , fftalg0 =112 , wfoptalg0 =  0
-
- outvars: echo of global parameters not present in the input file              
-  max_nthreads =    0
-
 -outvars: echo values of preprocessed input variables --------
 
 These variables are accessible in NetCDF format (abinit-o_OUT.nc)

            acell      1.0752483680E+01  1.0752483680E+01  1.0752483680E+01 Bohr
              amu      2.08980370E+02  5.58470000E+01  1.59994000E+01
             ecut      1.00000000E+01 Hartree
-          fftalg         112
             iscf           5
           istwfk        9
              kpt      5.00000000E-01  5.00000000E-01  5.00000000E-01
         kptrlatt        1    0    0      0    1    0      0    0    1
          kptrlen      7.44628903E+00
P           mkmem           1
            natom          10
            nband          41
            ngfft          24      24      45
             nkpt           1
            nstep           1
             nsym           4
           ntypat           3
              occ      2.000000  2.000000  2.000000  2.000000  2.000000  2.000000
                       2.000000  2.000000  2.000000  2.000000  2.000000  2.000000
                       2.000000  2.000000  2.000000  2.000000  2.000000  2.000000
                       2.000000  2.000000  2.000000  2.000000  2.000000  2.000000
                       2.000000  2.000000  2.000000  2.000000  2.000000  2.000000
                       2.000000  2.000000  2.000000  2.000000  2.000000  2.000000
                       2.000000  2.000000  2.000000  0.000000  0.000000
           prtden           0
           prteig           0
            prtwf           0
            rprim      5.6543862000E-01 -2.8271931000E-01 -2.8271931000E-01
                       0.0000000000E+00  4.8968421000E-01 -4.8968421000E-01
                       8.2479038000E-01  8.2479038000E-01  8.2479038000E-01
           shiftk      5.00000000E-01  5.00000000E-01  5.00000000E-01
           symrel      1  0  0   0  1  0   0  0  1       1  0  0   0  1  0   0  0  1
                       0  1  0   1  0  0   0  0  1       0  1  0   1  0  0   0  0  1
            tnons      0.0000000  0.0000000  0.0000000     0.5000000  0.5000000  0.5000000
                       0.0000000 -0.0000000  0.0000000     0.5000000  0.5000000  0.5000000
           toldfe      1.00000000E+05 Hartree
            typat      1  1  2  2  3  3  3  3  3  3
           xangst      2.2885363006E+00  1.6984319933E+00  8.6237037771E-02
                       6.2437164650E+00  4.6337599270E+00  2.3527685031E-01
                       2.5049421639E-02  1.8590371109E-02  9.4391682556E-04
                       3.9802295861E+00  2.9539183048E+00  1.4998372937E-01
                       4.1995511961E+00  5.2194736460E+00  1.0684706863E+00
                       5.8924145151E+00  2.9069793448E+00  1.6881016686E+00
                       3.4230795055E+00  1.9037069770E+00 -2.2472959827E+00
                       1.9372343506E+00  2.7579395322E+00 -1.2472262651E+00
                       4.1609312816E+00  3.6614109837E+00  2.2966961452E+00
                       3.4616994201E+00  6.7548151806E-01 -6.8923332040E-01
            xcart      4.3247068533E+00  3.2095713226E+00  1.6296438390E-01
                       1.1798914170E+01  8.7565372276E+00  4.4460881250E-01
                       4.7336546685E-02  3.5130710105E-02  1.7837442925E-03
                       7.5215438637E+00  5.5820966151E+00  2.8342817289E-01
                       7.9360016417E+00  9.8633757487E+00  2.0191169782E+00
                       1.1135049695E+01  5.4933948356E+00  3.1900498381E+00
                       6.4686827965E+00  3.5974848237E+00 -4.2467739469E+00
                       3.6608423779E+00  5.2117504070E+00 -2.3569160669E+00
                       7.8630205799E+00  6.9190640191E+00  4.3401267249E+00
                       6.5416638583E+00  1.2764750770E+00 -1.3024622172E+00
             xred      2.8930873000E-01  2.8930873000E-01  2.8930873000E-01
                       7.8930873000E-01  7.8930873000E-01  7.8930873000E-01
                       3.1666600000E-03  3.1666600000E-03  3.1666600000E-03
                       5.0316666000E-01  5.0316666000E-01  5.0316666000E-01
                       2.1872786000E-01  7.4489837000E-01  7.4489837000E-01
                       7.4489837000E-01  2.1872786000E-01  7.4489837000E-01
                       7.4489837000E-01  7.4489837000E-01  2.1872786000E-01
                       2.4489837000E-01  7.1872786000E-01  2.4489837000E-01
                       2.4489837000E-01  2.4489837000E-01  7.1872786000E-01
                       7.1872786000E-01  2.4489837000E-01  2.4489837000E-01
            znucl       83.00000   26.00000    8.00000

================================================================================

 chkinp: Checking input parameters for consistency.
 DATA TYPE INFORMATION: 
 REAL:      Data type name: REAL(DP) 
            Kind value:      8
            Precision:      15
            Smallest nonnegligible quantity relative to 1:  0.22204460E-15
            Smallest positive number:                       0.22250739-307
            Largest representable number:                   0.17976931+309
 INTEGER:   Data type name: INTEGER(default) 
            Kind value: 4
            Bit size:   32
            Largest representable number: 2147483647
 LOGICAL:   Data type name: LOGICAL 
            Kind value: 4
 CHARACTER: Data type name: CHARACTER             Kind value: 1

  ==== OpenMP parallelism is OFF ====
 
  ==== Using MPI-2 specifications ==== 
  MPI-IO support is ON
  xmpi_tag_ub ................   2147483647
  xmpi_bsize_ch ..............            1
  xmpi_bsize_int .............            4
  xmpi_bsize_sp ..............            4
  xmpi_bsize_dp ..............            8
  xmpi_bsize_spc .............            8
  xmpi_bsize_dpc .............           16
  xmpio_bsize_frm ............            4
  xmpi_address_kind ..........            8
  xmpi_offset_kind ...........            8
  MPI_WTICK ..................    9.9999999999999995E-007

================================================================================
== DATASET  1 ==================================================================
-   nproc =    1


 getdim_nloc : deduce lmnmax  =  14, lnmax  =   6,
                      lmnmaxso=  25, lnmaxso=   9.
 Exchange-correlation functional for the present dataset will be:
  LDA: new Teter (4/93) with spin-polarized option - ixc=1
 Citation for XC functional:
  S. Goedecker, M. Teter, J. Huetter, PRB 54, 1703 (1996)

 Unit cell volume ucvol=  8.5171204E+02 bohr^3
 Angles (23,13,12)=  9.00000000E+01  9.00000000E+01  9.00000000E+01 degrees

 getcut: wavevector=  0.0000  0.0000  0.0000  ngfft=  24  24  45
         ecut(hartree)=     10.000   => boxcut(ratio)=   2.01222
- pspini: atom type   1  psp file is Bi.psp
- pspatm: opening atomic psp file    Bi.psp
- Goedecker pseudopotential for Bi
- 83.00000   5.00000     70301                znucl, zion, pspdat
   10    1    2    0      2001   0.00000      pspcod,pspxc,lmax,lloc,mmax,r2well
 rloc=   0.6050000
 cc(1:1)=   6.6794371
 for angular momentum l =  0 r(l) =   0.6788580
   h11, h12, h13 =   1.3776338   0.1989540  -0.1149191
        h22, h23 =              -0.5136969   0.2967198
             h33 =                          -0.4710281
 for angular momentum l =  1 r(l) =   0.7986727
   h11, h12, h13 =   0.6555781   0.1702699   0.0000000
        h22, h23 =              -0.4029322   0.0000000
             h33 =                           0.0000000
   k11, k12, k13 =   0.3053135   0.0097757   0.0000000
        k22, k23 =              -0.0231337   0.0000000
             k33 =                           0.0000000
 for angular momentum l =  2 r(l) =   0.9346826
   h11, h12, h13 =   0.3784758   0.0000000   0.0000000
        h22, h23 =               0.0000000   0.0000000
             h33 =                           0.0000000
   k11, k12, k13 =   0.0292174   0.0000000   0.0000000
        k22, k23 =               0.0000000   0.0000000
             k33 =                           0.0000000
-  Local part computed in reciprocal space.

 pspatm : COMMENT -
  the projectors are not normalized,
  so that the KB energies are not consistent with 
  definition in PRB44, 8503 (1991). 
  However, this does not influence the results obtained hereafter.
 pspatm: epsatm=   34.79471605
         --- l  ekb(1:nproj) -->
             0   -0.901401   -0.217891    1.555038
             1   -0.989899    1.571991
             2    3.344660
 pspatm: atomic psp has been read  and splines computed

- pspini: atom type   2  psp file is Fe.psp
- pspatm: opening atomic psp file    Fe.psp
- Goedecker pseudopotential for Fe
- 26.00000  16.00000     70301                znucl, zion, pspdat
   10    1    2    2      2001   0.00000      pspcod,pspxc,lmax,lloc,mmax,r2well
 rloc=   0.3600000
 cc(1:2)=   5.3925067  -0.0300664
 for angular momentum l =  0 r(l) =   0.2692681
   h11, h12, h13 =  10.1937228   2.6471772   0.0000000
        h22, h23 =              -6.8349821   0.0000000
             h33 =                           0.0000000
 for angular momentum l =  1 r(l) =   0.2476856
   h11, h12, h13 =   0.1456126   2.2121720   0.0000000
        h22, h23 =              -5.2349543   0.0000000
             h33 =                           0.0000000
   k11, k12, k13 =   0.2014502   0.0320434   0.0000000
        k22, k23 =              -0.0758286   0.0000000
             k33 =                           0.0000000
 for angular momentum l =  2 r(l) =   0.2230210
   h11, h12, h13 = -12.0269410   0.0000000   0.0000000
        h22, h23 =               0.0000000   0.0000000
             h33 =                           0.0000000
   k11, k12, k13 =   0.0103223   0.0000000   0.0000000
        k22, k23 =               0.0000000   0.0000000
             k33 =                           0.0000000
-  Local part computed in reciprocal space.

 pspatm : COMMENT -
  the projectors are not normalized,
  so that the KB energies are not consistent with 
  definition in PRB44, 8503 (1991). 
  However, this does not influence the results obtained hereafter.
 pspatm: epsatm=   16.92502181
         --- l  ekb(1:nproj) -->
             0   -0.500862    0.733316
             1   -0.039837    0.006202
             2   -0.004680
 pspatm: atomic psp has been read  and splines computed

- pspini: atom type   3  psp file is O.psp
- pspatm: opening atomic psp file    O.psp
- Goedecker pseudopotential for O
-  8.00000   6.00000     70301                znucl, zion, pspdat
   10    1    1    2      2001   0.00000      pspcod,pspxc,lmax,lloc,mmax,r2well
 rloc=   0.2476209
 cc(1:2)= -16.5803180   2.3957009
 for angular momentum l =  0 r(l) =   0.2217861
   h11, h12, h13 =  18.2669172   0.0000000   0.0000000
        h22, h23 =               0.0000000   0.0000000
             h33 =                           0.0000000
 for angular momentum l =  1 r(l) =   0.2568289
   h11, h12, h13 =   0.0000000   0.0000000   0.0000000
        h22, h23 =               0.0000000   0.0000000
             h33 =                           0.0000000
   k11, k12, k13 =   0.0044758   0.0000000   0.0000000
        k22, k23 =               0.0000000   0.0000000
             k33 =                           0.0000000
-  Local part computed in reciprocal space.

 pspatm : COMMENT -
  the projectors are not normalized,
  so that the KB energies are not consistent with 
  definition in PRB44, 8503 (1991). 
  However, this does not influence the results obtained hereafter.
 pspatm: epsatm=    0.06537593
         --- l  ekb(1:nproj) -->
             0    0.706437
             1    0.000000
 pspatm: atomic psp has been read  and splines computed

   8.09887504E+03                                ecore*ucvol(ha*bohr**3)
 ==== Info on pseudopotentials ====
  Norm-conserving pseudopotentials
  Number of pseudopotentials ..    3
  Number of types of atoms   ..    3
  Calculation with spin-orbit coupling 
  Max number of channels (spin-orbit included)   5
  - Atom type    1 has spin-orbit characteristics (pspso=  0)
  - Atom type    2 has spin-orbit characteristics (pspso=  0)
  - Atom type    3 has spin-orbit characteristics (pspso=  0)
  Nonlocal part applied using Legendre polynomials
  Max number of non-local projectors over l and type   3
  Highest angular momentum +1 .......   3
  Max number of (l,n)   components ..   9
  Max number of (l,m,n) components ..   9

 Info on the Q-grid used for form factors in spline form: 
   Number of q-points for radial functions ffspl ..   3001
   Number of q-points for vlspl ...................   3001
   vloc is computed in Reciprocal Space
   model core charge treated in real-space

  XC functional for type 1 is 1
  Pseudo valence available: no
  XC functional for type 2 is 1
  Pseudo valence available: no
  XC functional for type 3 is 1
  Pseudo valence available: no

 wfconv:    41 bands initialized randomly with npw=   652, for ikpt=     1
_setup2: Arith. and geom. avg. npw (full set) are    1304.000    1304.000
 initro: for itypat=  1, take decay length=      1.1500,
 initro: indeed, coreel=     78.0000, nval=  5 and densty=  0.0000E+00.
 initro: for itypat=  2, take decay length=      0.6000,
 initro: indeed, coreel=     10.0000, nval= 16 and densty=  0.0000E+00.
 initro: for itypat=  3, take decay length=      0.5000,
 initro: indeed, coreel=      2.0000, nval=  6 and densty=  0.0000E+00.

================================================================================

 getcut: wavevector=  0.0000  0.0000  0.0000  ngfft=  24  24  45
         ecut(hartree)=     10.000   => boxcut(ratio)=   2.01222

 ITER STEP NUMBER     1
 vtorho : nnsclo_now=2, note that nnsclo,dbl_nnsclo,istep=0 0 1
 Total charge density [el/Bohr^3]
      Maximum=    1.8228E+00  at reduced coord.    0.5000    0.5000    0.4667
      Minimum=    1.0424E-03  at reduced coord.    0.7917    0.7500    0.7778
   Integrated=    7.8000E+01
 ETOT  1  -317.21122286014    -3.172E+02 5.415E-02 2.059E+03
 scprqt: <Vxc>= -4.4127609E-01 hartree
 scfcge:
 scfcge:istep-iline_cge-ilinmin lambda      etot             resid
 scfcge: actual     1-0-0   0.0000E+00 -3.172112228601E+02  6.0442E+02

 Cartesian components of stress tensor (hartree/bohr^3)
  sigma(1 1)=  2.50189244E-02  sigma(3 2)=  2.13317190E-03
  sigma(2 2)=  2.38304263E-02  sigma(3 1)=  2.04308010E-03
  sigma(3 3)=  2.27422793E-02  sigma(2 1)=  3.95583520E-03

================================================================================

 ----iterations are completed or convergence reached----


 === Gap info ===
  >>>> For spin  1
   Minimum optical gap =   0.7107 [eV], located at k-point      :   0.5000  0.5000  0.5000
   Fundamental gap     =   0.7107 [eV], Top of valence bands at :   0.5000  0.5000  0.5000
                                        Bottom of conduction at :   0.5000  0.5000  0.5000
 Mean square residual over all n,k,spin=   1.2880E-02; max=  5.4148E-02
   0.5000  0.5000  0.5000    1  5.41476E-02 kpt; spin; max resid(k); each band:
  1.14E-02 1.06E-02 5.53E-03 1.10E-02 3.34E-03 1.06E-02 1.03E-02 1.48E-02
  5.42E-03 5.04E-03 3.88E-03 8.05E-03 5.99E-03 1.03E-02 9.38E-03 1.11E-02
  4.52E-03 9.75E-03 5.18E-03 8.78E-03 7.05E-03 6.84E-03 1.10E-02 1.40E-02
  6.19E-03 6.55E-03 8.08E-03 8.16E-03 1.63E-02 8.60E-03 9.97E-03 1.61E-02
  1.97E-02 1.81E-02 2.31E-02 1.84E-02 2.06E-02 2.27E-02 3.64E-02 3.11E-02
  5.41E-02
 Fermi (or HOMO) energy (hartree) =   0.40175   Average Vxc (hartree)=  -0.44128
 Eigenvalues (hartree) for nkpt=   1  k points:
 kpt#   1, nband= 41, wtk=  1.00000, kpt=  0.5000  0.5000  0.5000 (reduced coord)
  -4.55803   -4.55785   -2.88892   -2.88863   -2.88096   -2.88027   -2.85926   -2.85887
  -0.43614   -0.43586   -0.39092   -0.39013   -0.28881   -0.28767   -0.19029   -0.18916
   0.06098    0.06217    0.16730    0.16860    0.17723    0.17931    0.20471    0.20721
   0.29696    0.30242    0.30649    0.31749    0.31863    0.32758    0.33396    0.33816
   0.34594    0.35420    0.35988    0.36263    0.37879    0.39093    0.40175    0.42786
   0.43326
 Total charge density [el/Bohr^3]
      Maximum=    1.8228E+00  at reduced coord.    0.5000    0.5000    0.4667
 Next maximum=    1.8133E+00  at reduced coord.    0.5000    0.5417    0.5333
      Minimum=    1.0424E-03  at reduced coord.    0.7917    0.7500    0.7778
 Next minimum=    1.0424E-03  at reduced coord.    0.7500    0.7917    0.7778
   Integrated=    7.8000E+01

 Cartesian components of stress tensor (hartree/bohr^3)
  sigma(1 1)=  2.50189244E-02  sigma(3 2)=  2.13317190E-03
  sigma(2 2)=  2.38304263E-02  sigma(3 1)=  2.04308010E-03
  sigma(3 3)=  2.27422793E-02  sigma(2 1)=  3.95583520E-03

-Cartesian components of stress tensor (GPa)         [Pressure= -7.0210E+02 GPa]
- sigma(1 1)=  7.36082046E+02  sigma(3 2)=  6.27600736E+01
- sigma(2 2)=  7.01115228E+02  sigma(3 1)=  6.01094818E+01
- sigma(3 3)=  6.69100845E+02  sigma(2 1)=  1.16384670E+02

== END DATASET(S) ==============================================================
================================================================================
  
 -outvars: echo values of variables after computation  --------
 
 These variables are accessible in NetCDF format (abinit-o_OUT.nc)

            acell      1.0752483680E+01  1.0752483680E+01  1.0752483680E+01 Bohr
              amu      2.08980370E+02  5.58470000E+01  1.59994000E+01
             ecut      1.00000000E+01 Hartree
           etotal     -3.1721122286E+02
            fcart     -3.7001818664E-01 -1.9805646481E-01  2.7175169436E-01
                      -3.7001818664E-01 -1.9805646481E-01  2.7175169436E-01
                       3.0045949036E-01  2.1266677955E-01 -2.7187365982E-02
                       3.0045949036E-01  2.1266677955E-01 -2.7187365982E-02
                       2.0787062825E-01 -1.3107373200E-01 -6.0702191114E-02
                      -3.5264126430E-02  2.0105451909E-01 -1.4969568753E-01
                      -1.0304780555E-01 -8.4591101833E-02 -3.4166449736E-02
                      -3.5264126430E-02  2.0105451909E-01 -1.4969568753E-01
                      -1.0304780555E-01 -8.4591101833E-02 -3.4166449736E-02
                       2.0787062825E-01 -1.3107373200E-01 -6.0702191114E-02
-          fftalg         112
             iscf           5
           istwfk        9
              kpt      5.00000000E-01  5.00000000E-01  5.00000000E-01
         kptrlatt        1    0    0      0    1    0      0    0    1
          kptrlen      7.44628903E+00
P           mkmem           1
            natom          10
            nband          41
            ngfft          24      24      45
             nkpt           1
            nstep           1
             nsym           4
           ntypat           3
              occ      2.000000  2.000000  2.000000  2.000000  2.000000  2.000000
                       2.000000  2.000000  2.000000  2.000000  2.000000  2.000000
                       2.000000  2.000000  2.000000  2.000000  2.000000  2.000000
                       2.000000  2.000000  2.000000  2.000000  2.000000  2.000000
                       2.000000  2.000000  2.000000  2.000000  2.000000  2.000000
                       2.000000  2.000000  2.000000  2.000000  2.000000  2.000000
                       2.000000  2.000000  2.000000  0.000000  0.000000
           prtden           0
           prteig           0
            prtwf           0
            rprim      5.6543862000E-01 -2.8271931000E-01 -2.8271931000E-01
                       0.0000000000E+00  4.8968421000E-01 -4.8968421000E-01
                       8.2479038000E-01  8.2479038000E-01  8.2479038000E-01
           shiftk      5.00000000E-01  5.00000000E-01  5.00000000E-01
           strten      2.5018924440E-02  2.3830426255E-02  2.2742279312E-02
                       2.1331719033E-03  2.0430801036E-03  3.9558352013E-03
           symrel      1  0  0   0  1  0   0  0  1       1  0  0   0  1  0   0  0  1
                       0  1  0   1  0  0   0  0  1       0  1  0   1  0  0   0  0  1
            tnons      0.0000000  0.0000000  0.0000000     0.5000000  0.5000000  0.5000000
                       0.0000000 -0.0000000  0.0000000     0.5000000  0.5000000  0.5000000
           toldfe      1.00000000E+05 Hartree
            typat      1  1  2  2  3  3  3  3  3  3
           xangst      2.2885363006E+00  1.6984319933E+00  8.6237037771E-02
                       6.2437164650E+00  4.6337599270E+00  2.3527685031E-01
                       2.5049421639E-02  1.8590371109E-02  9.4391682556E-04
                       3.9802295861E+00  2.9539183048E+00  1.4998372937E-01
                       4.1995511961E+00  5.2194736460E+00  1.0684706863E+00
                       5.8924145151E+00  2.9069793448E+00  1.6881016686E+00
                       3.4230795055E+00  1.9037069770E+00 -2.2472959827E+00
                       1.9372343506E+00  2.7579395322E+00 -1.2472262651E+00
                       4.1609312816E+00  3.6614109837E+00  2.2966961452E+00
                       3.4616994201E+00  6.7548151806E-01 -6.8923332040E-01
            xcart      4.3247068533E+00  3.2095713226E+00  1.6296438390E-01
                       1.1798914170E+01  8.7565372276E+00  4.4460881250E-01
                       4.7336546685E-02  3.5130710105E-02  1.7837442925E-03
                       7.5215438637E+00  5.5820966151E+00  2.8342817289E-01
                       7.9360016417E+00  9.8633757487E+00  2.0191169782E+00
                       1.1135049695E+01  5.4933948356E+00  3.1900498381E+00
                       6.4686827965E+00  3.5974848237E+00 -4.2467739469E+00
                       3.6608423779E+00  5.2117504070E+00 -2.3569160669E+00
                       7.8630205799E+00  6.9190640191E+00  4.3401267249E+00
                       6.5416638583E+00  1.2764750770E+00 -1.3024622172E+00
             xred      2.8930873000E-01  2.8930873000E-01  2.8930873000E-01
                       7.8930873000E-01  7.8930873000E-01  7.8930873000E-01
                       3.1666600000E-03  3.1666600000E-03  3.1666600000E-03
                       5.0316666000E-01  5.0316666000E-01  5.0316666000E-01
                       2.1872786000E-01  7.4489837000E-01  7.4489837000E-01
                       7.4489837000E-01  2.1872786000E-01  7.4489837000E-01
                       7.4489837000E-01  7.4489837000E-01  2.1872786000E-01
                       2.4489837000E-01  7.1872786000E-01  2.4489837000E-01
                       2.4489837000E-01  2.4489837000E-01  7.1872786000E-01
                       7.1872786000E-01  2.4489837000E-01  2.4489837000E-01
            znucl       83.00000   26.00000    8.00000

================================================================================
  

================================================================================

 Suggested references for the acknowledgment of ABINIT usage.

 The users of ABINIT have little formal obligations with respect to the ABINIT group
 (those specified in the GNU General Public License, http://www.gnu.org/copyleft/gpl.txt).
 However, it is common practice in the scientific literature,
 to acknowledge the efforts of people that have made the research possible.
 In this spirit, please find below suggested citations of work written by ABINIT developers,
 corresponding to implementations inside of ABINIT that you have used in the present run.
 Note also that it will be of great value to readers of publications presenting these results,
 to read papers enabling them to understand the theoretical formalism and details
 of the ABINIT implementation.
 For information on why they are suggested, see also http://www.abinit.org/about/?text=acknowledgments.
-
- [1] Recent developments in the ABINIT software package.
- Computer Phys. Comm. 205, 106 (2016).
- X.Gonze, F.Jollet, F.Abreu Araujo, D.Adams, B.Amadon, T.Applencourt,
- C.Audouze, J.-M.Beuken, J.Bieder, A.Bokhanchuk, E.Bousquet, F.Bruneval
- D.Caliste, M.Cote, F.Dahm, F.Da Pieve, M.Delaveau, M.Di Gennaro,
- B.Dorado, C.Espejo, G.Geneste, L.Genovese, A.Gerossier, M.Giantomassi,
- Y.Gillet, D.R.Hamann, L.He, G.Jomard, J.Laflamme Janssen, S.Le Roux,
- A.Levitt, A.Lherbier, F.Liu, I.Lukacevic, A.Martin, C.Martins,
- M.J.T.Oliveira, S.Ponce, Y.Pouillon, T.Rangel, G.-M.Rignanese,
- A.H.Romero, B.Rousseau, O.Rubel, A.A.Shukri, M.Stankovski, M.Torrent,
- M.J.Van Setten, B.Van Troeye, M.J.Verstraete, D.Waroquier, J.Wiktor,
- B.Xue, A.Zhou, J.W.Zwanziger.
- Comment : the fourth generic paper describing the ABINIT project.
- Note that a version of this paper, that is not formatted for Computer Phys. Comm. 
- is available at http://www.abinit.org/about/ABINIT16.pdf .
- The licence allows the authors to put it on the Web.
-
- [2] ABINIT : First-principles approach of materials and nanosystem properties.
- Computer Phys. Comm. 180, 2582-2615 (2009).
- X. Gonze, B. Amadon, P.-M. Anglade, J.-M. Beuken, F. Bottin, P. Boulanger, F. Bruneval,
- D. Caliste, R. Caracas, M. Cote, T. Deutsch, L. Genovese, Ph. Ghosez, M. Giantomassi
- S. Goedecker, D.R. Hamann, P. Hermet, F. Jollet, G. Jomard, S. Leroux, M. Mancini, S. Mazevet,
- M.J.T. Oliveira, G. Onida, Y. Pouillon, T. Rangel, G.-M. Rignanese, D. Sangalli, R. Shaltaf,
- M. Torrent, M.J. Verstraete, G. Zerah, J.W. Zwanziger
- Comment : the third generic paper describing the ABINIT project.
- Note that a version of this paper, that is not formatted for Computer Phys. Comm. 
- is available at http://www.abinit.org/about/ABINIT_CPC_v10.pdf .
- The licence allows the authors to put it on the Web.
-
- [3] A brief introduction to the ABINIT software package.
- Z. Kristallogr. 220, 558-562 (2005).
- X. Gonze, G.-M. Rignanese, M. Verstraete, J.-M. Beuken, Y. Pouillon, R. Caracas, F. Jollet,
- M. Torrent, G. Zerah, M. Mikami, Ph. Ghosez, M. Veithen, J.-Y. Raty, V. Olevano, F. Bruneval,
- L. Reining, R. Godby, G. Onida, D.R. Hamann, and D.C. Allan.
- Comment : the second generic paper describing the ABINIT project. Note that this paper
- should be cited especially if you are using the GW part of ABINIT, as several authors
- of this part are not in the list of authors of the first or third paper.
- The .pdf of the latter paper is available at http://www.abinit.org/about/zfk_0505-06_558-562.pdf.
- Note that it should not redistributed (Copyright by Oldenburg Wissenshaftverlag,
- the licence allows the authors to put it on the Web).
-
- And optionally:
-
- [4] First-principles computation of material properties : the ABINIT software project. 
- X. Gonze, J.-M. Beuken, R. Caracas, F. Detraux, M. Fuchs, G.-M. Rignanese, L. Sindic,
- M. Verstraete, G. Zerah, F. Jollet, M. Torrent, A. Roy, M. Mikami, Ph. Ghosez, J.-Y. Raty, D.C. Allan.
- Computational Materials Science 25, 478-492 (2002). http://dx.doi.org/10.1016/S0927-0256(02)00325-7
- Comment : the original paper describing the ABINIT project.
-
- [5] Towards a potential-based conjugate gradient algorithm for order-N self-consistent
- total energy calculations.
- X. Gonze, Phys. Rev. B 54, 4383 (1996).
- Comment : The potential-based conjugate-gradient algorithm, used when iscf=5, is not published.
- However, many elements of this algorithm have been explained in the paper above.
 Proc.   0 individual time (sec): cpu=          0.6  wall=          0.6

 Calculation completed.
.Delivered   2 WARNINGs and   6 COMMENTs to log file.

--- !FinalSummary
program: abinit
version: 8.4.2
start_datetime: Tue Jul 18 10:10:48 2017
end_datetime: Tue Jul 18 10:10:48 2017
overall_cpu_time:           0.6
overall_wall_time:           0.6
exit_requested_by_user: no 
timelimit: 0
pseudos: 
    Bi  : 102155a1f1dd1cafd8efce96630d60c4
    Fe  : ad20439440aa98938e67fbea02ccd813
    O   : ecc4b405e482822b6e2e4eae71dcfca5
usepaw: 0
mpi_procs: 1
omp_threads: 1
num_warnings: 2
num_comments: 6
...
