nqpoint: 1      
natom:   10     
reciprocal_lattice:
- [   0.20714120,   0.00000000,   0.07084704 ] # a*
- [  -0.10357060,   0.17938954,   0.07084704 ] # b*
- [  -0.10357060,  -0.17938954,   0.07084704 ] # c*
phonon:
- q-position: [    0.0000000,    0.0000000,    0.0000000 ]
  dynamical_matrix:
  - [    0.0299943126,   -0.0000000000,    0.0000000000,    0.0000000000,    0.0000000000,    0.0000000000,   -0.0020040862,    0.0000000000,    0.0000000000,    0.0000000000,    0.0000000000,    0.0000000000,   -0.0399194266,    0.0000000000,    0.0000000000,    0.0000000000,    0.0000000000,    0.0000000000,    0.0096883642,    0.0000000000,    0.0000000000,    0.0000000000,    0.0000000000,    0.0000000000,   -0.0066389181,    0.0000000000,    0.0000000000,    0.0000000000,   -0.0031176055,    0.0000000000,    0.0209246823,    0.0000000000,    0.0159138532,    0.0000000000,    0.0015587977,    0.0000000000,    0.0209246823,    0.0000000000,   -0.0159138532,    0.0000000000,    0.0015587977,    0.0000000000,   -0.0219663109,    0.0000000000,    0.0080718836,    0.0000000000,    0.0156922492,    0.0000000000,   -0.0219663109,    0.0000000000,   -0.0080718836,    0.0000000000,    0.0156922492,    0.0000000000,   -0.0359472196,    0.0000000000,    0.0000000000,    0.0000000000,   -0.0313844984,    0.0000000000 ]
  - [    0.0000000000,   -0.0000000000,    0.0299943126,   -0.0000000000,    0.0000000000,    0.0000000000,    0.0000000000,    0.0000000000,   -0.0020040862,    0.0000000000,    0.0000000000,    0.0000000000,    0.0000000000,    0.0000000000,   -0.0399194266,    0.0000000000,    0.0000000000,    0.0000000000,    0.0000000000,    0.0000000000,    0.0096883642,    0.0000000000,    0.0000000000,    0.0000000000,    0.0000000000,    0.0000000000,    0.0301125458,    0.0000000000,    0.0000000000,    0.0000000000,    0.0159138532,    0.0000000000,    0.0025489454,    0.0000000000,   -0.0026999180,    0.0000000000,   -0.0159138532,    0.0000000000,    0.0025489454,    0.0000000000,    0.0026999180,    0.0000000000,    0.0080718836,    0.0000000000,   -0.0312869167,    0.0000000000,   -0.0271797736,    0.0000000000,   -0.0080718836,    0.0000000000,   -0.0312869167,    0.0000000000,    0.0271797736,    0.0000000000,    0.0000000000,    0.0000000000,   -0.0173060079,    0.0000000000,    0.0000000000,    0.0000000000 ]
  - [    0.0000000000,   -0.0000000000,    0.0000000000,   -0.0000000000,    0.0800994867,   -0.0000000000,    0.0000000000,    0.0000000000,    0.0000000000,    0.0000000000,   -0.0181117753,    0.0000000000,    0.0000000000,    0.0000000000,    0.0000000000,    0.0000000000,    0.0262434248,    0.0000000000,    0.0000000000,    0.0000000000,    0.0000000000,    0.0000000000,   -0.0601086388,    0.0000000000,    0.0025907861,    0.0000000000,    0.0000000000,    0.0000000000,    0.0050404097,    0.0000000000,   -0.0012953930,    0.0000000000,    0.0022436899,    0.0000000000,    0.0050404097,    0.0000000000,   -0.0012953930,    0.0000000000,   -0.0022436899,    0.0000000000,    0.0050404097,    0.0000000000,    0.0196085789,    0.0000000000,   -0.0339630543,    0.0000000000,   -0.0586313232,    0.0000000000,    0.0196085789,    0.0000000000,    0.0339630543,    0.0000000000,   -0.0586313232,    0.0000000000,   -0.0392171578,    0.0000000000,    0.0000000000,    0.0000000000,   -0.0586313232,    0.0000000000 ]
  - [   -0.0020040862,   -0.0000000000,    0.0000000000,   -0.0000000000,    0.0000000000,   -0.0000000000,    0.0299943126,   -0.0000000000,    0.0000000000,    0.0000000000,    0.0000000000,    0.0000000000,    0.0096883642,    0.0000000000,    0.0000000000,    0.0000000000,    0.0000000000,    0.0000000000,   -0.0399194266,    0.0000000000,    0.0000000000,    0.0000000000,    0.0000000000,    0.0000000000,   -0.0359472196,    0.0000000000,    0.0000000000,    0.0000000000,   -0.0313844984,    0.0000000000,   -0.0219663109,    0.0000000000,    0.0080718836,    0.0000000000,    0.0156922492,    0.0000000000,   -0.0219663109,    0.0000000000,   -0.0080718836,    0.0000000000,    0.0156922492,    0.0000000000,    0.0209246823,    0.0000000000,    0.0159138532,    0.0000000000,    0.0015587977,    0.0000000000,    0.0209246823,    0.0000000000,   -0.0159138532,    0.0000000000,    0.0015587977,    0.0000000000,   -0.0066389181,    0.0000000000,    0.0000000000,    0.0000000000,   -0.0031176055,    0.0000000000 ]
  - [    0.0000000000,   -0.0000000000,   -0.0020040862,   -0.0000000000,    0.0000000000,   -0.0000000000,    0.0000000000,   -0.0000000000,    0.0299943126,   -0.0000000000,    0.0000000000,    0.0000000000,    0.0000000000,    0.0000000000,    0.0096883642,    0.0000000000,    0.0000000000,    0.0000000000,    0.0000000000,    0.0000000000,   -0.0399194266,    0.0000000000,    0.0000000000,    0.0000000000,    0.0000000000,    0.0000000000,   -0.0173060079,    0.0000000000,    0.0000000000,    0.0000000000,    0.0080718836,    0.0000000000,   -0.0312869167,    0.0000000000,   -0.0271797736,    0.0000000000,   -0.0080718836,    0.0000000000,   -0.0312869167,    0.0000000000,    0.0271797736,    0.0000000000,    0.0159138532,    0.0000000000,    0.0025489454,    0.0000000000,   -0.0026999180,    0.0000000000,   -0.0159138532,    0.0000000000,    0.0025489454,    0.0000000000,    0.0026999180,    0.0000000000,    0.0000000000,    0.0000000000,    0.0301125458,    0.0000000000,    0.0000000000,    0.0000000000 ]
  - [    0.0000000000,   -0.0000000000,    0.0000000000,   -0.0000000000,   -0.0181117753,   -0.0000000000,    0.0000000000,   -0.0000000000,    0.0000000000,   -0.0000000000,    0.0800994867,   -0.0000000000,    0.0000000000,    0.0000000000,    0.0000000000,    0.0000000000,   -0.0601086388,    0.0000000000,    0.0000000000,    0.0000000000,    0.0000000000,    0.0000000000,    0.0262434248,    0.0000000000,   -0.0392171578,    0.0000000000,    0.0000000000,    0.0000000000,   -0.0586313232,    0.0000000000,    0.0196085789,    0.0000000000,   -0.0339630543,    0.0000000000,   -0.0586313232,    0.0000000000,    0.0196085789,    0.0000000000,    0.0339630543,    0.0000000000,   -0.0586313232,    0.0000000000,   -0.0012953930,    0.0000000000,    0.0022436899,    0.0000000000,    0.0050404097,    0.0000000000,   -0.0012953930,    0.0000000000,   -0.0022436899,    0.0000000000,    0.0050404097,    0.0000000000,    0.0025907861,    0.0000000000,    0.0000000000,    0.0000000000,    0.0050404097,    0.0000000000 ]
  - [   -0.0399194266,   -0.0000000000,    0.0000000000,   -0.0000000000,    0.0000000000,   -0.0000000000,    0.0096883642,   -0.0000000000,    0.0000000000,   -0.0000000000,    0.0000000000,   -0.0000000000,    0.2879324215,   -0.0000000000,    0.0000000000,    0.0000000000,    0.0000000000,    0.0000000000,   -0.0665636838,    0.0000000000,    0.0000000000,    0.0000000000,    0.0000000000,    0.0000000000,   -0.0436771510,    0.0000000000,    0.0000000000,    0.0000000000,    0.0025225125,    0.0000000000,   -0.0152633695,    0.0000000000,    0.0164047013,    0.0000000000,   -0.0012612562,    0.0000000000,   -0.0152633695,    0.0000000000,   -0.0164047013,    0.0000000000,   -0.0012612562,    0.0000000000,   -0.0413474656,    0.0000000000,    0.0611843428,    0.0000000000,   -0.0569412372,    0.0000000000,   -0.0413474656,    0.0000000000,   -0.0611843428,    0.0000000000,   -0.0569412372,    0.0000000000,   -0.1473218602,    0.0000000000,    0.0000000000,    0.0000000000,    0.1138824745,    0.0000000000 ]
  - [    0.0000000000,   -0.0000000000,   -0.0399194266,   -0.0000000000,    0.0000000000,   -0.0000000000,    0.0000000000,   -0.0000000000,    0.0096883642,   -0.0000000000,    0.0000000000,   -0.0000000000,    0.0000000000,   -0.0000000000,    0.2879324215,   -0.0000000000,    0.0000000000,    0.0000000000,    0.0000000000,    0.0000000000,   -0.0665636838,    0.0000000000,    0.0000000000,    0.0000000000,    0.0000000000,    0.0000000000,   -0.0057921023,    0.0000000000,    0.0000000000,    0.0000000000,    0.0164047013,    0.0000000000,   -0.0342058839,    0.0000000000,    0.0021845601,    0.0000000000,   -0.0164047013,    0.0000000000,   -0.0342058839,    0.0000000000,   -0.0021845601,    0.0000000000,    0.0611843428,    0.0000000000,   -0.1119970654,    0.0000000000,    0.0986251152,    0.0000000000,   -0.0611843428,    0.0000000000,   -0.1119970654,    0.0000000000,   -0.0986251152,    0.0000000000,    0.0000000000,    0.0000000000,   -0.0060226708,    0.0000000000,    0.0000000000,    0.0000000000 ]
  - [    0.0000000000,   -0.0000000000,    0.0000000000,   -0.0000000000,    0.0262434248,   -0.0000000000,    0.0000000000,   -0.0000000000,    0.0000000000,   -0.0000000000,   -0.0601086388,   -0.0000000000,    0.0000000000,   -0.0000000000,    0.0000000000,   -0.0000000000,    0.2788464661,   -0.0000000000,    0.0000000000,    0.0000000000,    0.0000000000,    0.0000000000,   -0.0547007389,    0.0000000000,    0.0318802186,    0.0000000000,    0.0000000000,    0.0000000000,   -0.0205081317,    0.0000000000,   -0.0159401143,    0.0000000000,    0.0276090820,    0.0000000000,   -0.0205081317,    0.0000000000,   -0.0159401143,    0.0000000000,   -0.0276090820,    0.0000000000,   -0.0205081317,    0.0000000000,   -0.0441956600,    0.0000000000,    0.0765491260,    0.0000000000,   -0.0782377079,    0.0000000000,   -0.0441956600,    0.0000000000,   -0.0765491260,    0.0000000000,   -0.0782377079,    0.0000000000,    0.0883913201,    0.0000000000,    0.0000000000,    0.0000000000,   -0.0782377079,    0.0000000000 ]
  - [    0.0096883642,   -0.0000000000,    0.0000000000,   -0.0000000000,    0.0000000000,   -0.0000000000,   -0.0399194266,   -0.0000000000,    0.0000000000,   -0.0000000000,    0.0000000000,   -0.0000000000,   -0.0665636838,   -0.0000000000,    0.0000000000,   -0.0000000000,    0.0000000000,   -0.0000000000,    0.2879324215,   -0.0000000000,    0.0000000000,    0.0000000000,    0.0000000000,    0.0000000000,   -0.1473218602,    0.0000000000,    0.0000000000,    0.0000000000,    0.1138824745,    0.0000000000,   -0.0413474656,    0.0000000000,    0.0611843428,    0.0000000000,   -0.0569412372,    0.0000000000,   -0.0413474656,    0.0000000000,   -0.0611843428,    0.0000000000,   -0.0569412372,    0.0000000000,   -0.0152633695,    0.0000000000,    0.0164047013,    0.0000000000,   -0.0012612562,    0.0000000000,   -0.0152633695,    0.0000000000,   -0.0164047013,    0.0000000000,   -0.0012612562,    0.0000000000,   -0.0436771510,    0.0000000000,    0.0000000000,    0.0000000000,    0.0025225125,    0.0000000000 ]
  - [    0.0000000000,   -0.0000000000,    0.0096883642,   -0.0000000000,    0.0000000000,   -0.0000000000,    0.0000000000,   -0.0000000000,   -0.0399194266,   -0.0000000000,    0.0000000000,   -0.0000000000,    0.0000000000,   -0.0000000000,   -0.0665636838,   -0.0000000000,    0.0000000000,   -0.0000000000,    0.0000000000,   -0.0000000000,    0.2879324215,   -0.0000000000,    0.0000000000,    0.0000000000,    0.0000000000,    0.0000000000,   -0.0060226708,    0.0000000000,    0.0000000000,    0.0000000000,    0.0611843428,    0.0000000000,   -0.1119970654,    0.0000000000,    0.0986251152,    0.0000000000,   -0.0611843428,    0.0000000000,   -0.1119970654,    0.0000000000,   -0.0986251152,    0.0000000000,    0.0164047013,    0.0000000000,   -0.0342058839,    0.0000000000,    0.0021845601,    0.0000000000,   -0.0164047013,    0.0000000000,   -0.0342058839,    0.0000000000,   -0.0021845601,    0.0000000000,    0.0000000000,    0.0000000000,   -0.0057921023,    0.0000000000,    0.0000000000,    0.0000000000 ]
  - [    0.0000000000,   -0.0000000000,    0.0000000000,   -0.0000000000,   -0.0601086388,   -0.0000000000,    0.0000000000,   -0.0000000000,    0.0000000000,   -0.0000000000,    0.0262434248,   -0.0000000000,    0.0000000000,   -0.0000000000,    0.0000000000,   -0.0000000000,   -0.0547007389,   -0.0000000000,    0.0000000000,   -0.0000000000,    0.0000000000,   -0.0000000000,    0.2788464661,   -0.0000000000,    0.0883913201,    0.0000000000,    0.0000000000,    0.0000000000,   -0.0782377079,    0.0000000000,   -0.0441956600,    0.0000000000,    0.0765491260,    0.0000000000,   -0.0782377079,    0.0000000000,   -0.0441956600,    0.0000000000,   -0.0765491260,    0.0000000000,   -0.0782377079,    0.0000000000,   -0.0159401143,    0.0000000000,    0.0276090820,    0.0000000000,   -0.0205081317,    0.0000000000,   -0.0159401143,    0.0000000000,   -0.0276090820,    0.0000000000,   -0.0205081317,    0.0000000000,    0.0318802186,    0.0000000000,    0.0000000000,    0.0000000000,   -0.0205081317,    0.0000000000 ]
  - [   -0.0066389181,   -0.0000000000,    0.0000000000,   -0.0000000000,    0.0025907861,   -0.0000000000,   -0.0359472196,   -0.0000000000,    0.0000000000,   -0.0000000000,   -0.0392171578,   -0.0000000000,   -0.0436771510,   -0.0000000000,    0.0000000000,   -0.0000000000,    0.0318802186,   -0.0000000000,   -0.1473218602,   -0.0000000000,    0.0000000000,   -0.0000000000,    0.0883913201,   -0.0000000000,    0.9793122942,   -0.0000000000,    0.0000000000,    0.0000000000,   -0.1906175482,    0.0000000000,   -0.2122887008,    0.0000000000,    0.1519558383,    0.0000000000,   -0.0196802480,    0.0000000000,   -0.2122887008,    0.0000000000,   -0.1519558383,    0.0000000000,   -0.0196802480,    0.0000000000,   -0.0074156581,    0.0000000000,   -0.0555438829,    0.0000000000,    0.0570682401,    0.0000000000,   -0.0074156581,    0.0000000000,    0.0555438829,    0.0000000000,    0.0570682401,    0.0000000000,   -0.0292279760,    0.0000000000,    0.0000000000,    0.0000000000,    0.0235237021,    0.0000000000 ]
  - [    0.0000000000,   -0.0000000000,    0.0301125458,   -0.0000000000,    0.0000000000,   -0.0000000000,    0.0000000000,   -0.0000000000,   -0.0173060079,   -0.0000000000,    0.0000000000,   -0.0000000000,    0.0000000000,   -0.0000000000,   -0.0057921023,   -0.0000000000,    0.0000000000,   -0.0000000000,    0.0000000000,   -0.0000000000,   -0.0060226708,   -0.0000000000,    0.0000000000,   -0.0000000000,    0.0000000000,   -0.0000000000,    0.1674517494,   -0.0000000000,    0.0000000000,    0.0000000000,    0.1250798405,    0.0000000000,   -0.0523420728,    0.0000000000,    0.0021702314,    0.0000000000,   -0.1250798405,    0.0000000000,   -0.0523420728,    0.0000000000,   -0.0021702314,    0.0000000000,   -0.0153674863,    0.0000000000,   -0.0483563634,    0.0000000000,    0.0623241472,    0.0000000000,    0.0153674863,    0.0000000000,   -0.0483563634,    0.0000000000,   -0.0623241472,    0.0000000000,    0.0000000000,    0.0000000000,    0.0096602023,    0.0000000000,    0.0000000000,    0.0000000000 ]
  - [   -0.0031176055,   -0.0000000000,    0.0000000000,   -0.0000000000,    0.0050404097,   -0.0000000000,   -0.0313844984,   -0.0000000000,    0.0000000000,   -0.0000000000,   -0.0586313232,   -0.0000000000,    0.0025225125,   -0.0000000000,    0.0000000000,   -0.0000000000,   -0.0205081317,   -0.0000000000,    0.1138824745,   -0.0000000000,    0.0000000000,   -0.0000000000,   -0.0782377079,   -0.0000000000,   -0.1906175482,   -0.0000000000,    0.0000000000,   -0.0000000000,    0.6216258410,   -0.0000000000,    0.0117195995,    0.0000000000,   -0.0159584784,    0.0000000000,    0.0439987100,    0.0000000000,    0.0117195995,    0.0000000000,    0.0159584784,    0.0000000000,    0.0439987100,    0.0000000000,    0.0254401740,    0.0000000000,    0.0805846219,    0.0000000000,   -0.1594647799,    0.0000000000,    0.0254401740,    0.0000000000,   -0.0805846219,    0.0000000000,   -0.1594647799,    0.0000000000,    0.0235237021,    0.0000000000,    0.0000000000,    0.0000000000,   -0.0125960824,    0.0000000000 ]
  - [    0.0209246823,   -0.0000000000,    0.0159138532,   -0.0000000000,   -0.0012953930,   -0.0000000000,   -0.0219663109,   -0.0000000000,    0.0080718836,   -0.0000000000,    0.0196085789,   -0.0000000000,   -0.0152633695,   -0.0000000000,    0.0164047013,   -0.0000000000,   -0.0159401143,   -0.0000000000,   -0.0413474656,   -0.0000000000,    0.0611843428,   -0.0000000000,   -0.0441956600,   -0.0000000000,   -0.2122887008,   -0.0000000000,    0.1250798405,   -0.0000000000,    0.0117195995,   -0.0000000000,    0.3704168906,   -0.0000000000,   -0.3515459330,    0.0000000000,    0.0953087741,    0.0000000000,    0.0276312362,    0.0000000000,    0.0134379939,    0.0000000000,    0.0079606485,    0.0000000000,   -0.0000618423,    0.0000000000,    0.0168390715,    0.0000000000,   -0.0117618511,    0.0000000000,   -0.0688267110,    0.0000000000,   -0.0200882033,    0.0000000000,   -0.0825084141,    0.0000000000,   -0.0074156581,    0.0000000000,   -0.0153674863,    0.0000000000,    0.0254401740,    0.0000000000 ]
  - [    0.0159138532,   -0.0000000000,    0.0025489454,   -0.0000000000,    0.0022436899,   -0.0000000000,    0.0080718836,   -0.0000000000,   -0.0312869167,   -0.0000000000,   -0.0339630543,   -0.0000000000,    0.0164047013,   -0.0000000000,   -0.0342058839,   -0.0000000000,    0.0276090820,   -0.0000000000,    0.0611843428,   -0.0000000000,   -0.1119970654,   -0.0000000000,    0.0765491260,   -0.0000000000,    0.1519558383,   -0.0000000000,   -0.0523420728,   -0.0000000000,   -0.0159584784,   -0.0000000000,   -0.3515459330,   -0.0000000000,    0.7763471630,   -0.0000000000,   -0.1650796405,    0.0000000000,   -0.0134379939,    0.0000000000,   -0.2922620098,    0.0000000000,   -0.0181287098,    0.0000000000,    0.0168390715,    0.0000000000,   -0.0195059315,    0.0000000000,    0.0203721240,    0.0000000000,    0.0200882033,    0.0000000000,    0.0130546896,    0.0000000000,    0.0182604748,    0.0000000000,   -0.0555438829,    0.0000000000,   -0.0483563634,    0.0000000000,    0.0805846219,    0.0000000000 ]
  - [    0.0015587977,   -0.0000000000,   -0.0026999180,   -0.0000000000,    0.0050404097,   -0.0000000000,    0.0156922492,   -0.0000000000,   -0.0271797736,   -0.0000000000,   -0.0586313232,   -0.0000000000,   -0.0012612562,   -0.0000000000,    0.0021845601,   -0.0000000000,   -0.0205081317,   -0.0000000000,   -0.0569412372,   -0.0000000000,    0.0986251152,   -0.0000000000,   -0.0782377079,   -0.0000000000,   -0.0196802480,   -0.0000000000,    0.0021702314,   -0.0000000000,    0.0439987100,   -0.0000000000,    0.0953087741,   -0.0000000000,   -0.1650796405,   -0.0000000000,    0.6216258410,   -0.0000000000,    0.0079606485,    0.0000000000,    0.0181287098,    0.0000000000,    0.0439987100,    0.0000000000,   -0.0117618511,    0.0000000000,    0.0203721240,    0.0000000000,   -0.0125960824,    0.0000000000,   -0.0825084141,    0.0000000000,   -0.0182604748,    0.0000000000,   -0.1594647799,    0.0000000000,    0.0570682401,    0.0000000000,    0.0623241472,    0.0000000000,   -0.1594647799,    0.0000000000 ]
  - [    0.0209246823,   -0.0000000000,   -0.0159138532,   -0.0000000000,   -0.0012953930,   -0.0000000000,   -0.0219663109,   -0.0000000000,   -0.0080718836,   -0.0000000000,    0.0196085789,   -0.0000000000,   -0.0152633695,   -0.0000000000,   -0.0164047013,   -0.0000000000,   -0.0159401143,   -0.0000000000,   -0.0413474656,   -0.0000000000,   -0.0611843428,   -0.0000000000,   -0.0441956600,   -0.0000000000,   -0.2122887008,   -0.0000000000,   -0.1250798405,   -0.0000000000,    0.0117195995,   -0.0000000000,    0.0276312362,   -0.0000000000,   -0.0134379939,   -0.0000000000,    0.0079606485,   -0.0000000000,    0.3704168906,   -0.0000000000,    0.3515459330,    0.0000000000,    0.0953087741,    0.0000000000,   -0.0688267110,    0.0000000000,    0.0200882033,    0.0000000000,   -0.0825084141,    0.0000000000,   -0.0000618423,    0.0000000000,   -0.0168390715,    0.0000000000,   -0.0117618511,    0.0000000000,   -0.0074156581,    0.0000000000,    0.0153674863,    0.0000000000,    0.0254401740,    0.0000000000 ]
  - [   -0.0159138532,   -0.0000000000,    0.0025489454,   -0.0000000000,   -0.0022436899,   -0.0000000000,   -0.0080718836,   -0.0000000000,   -0.0312869167,   -0.0000000000,    0.0339630543,   -0.0000000000,   -0.0164047013,   -0.0000000000,   -0.0342058839,   -0.0000000000,   -0.0276090820,   -0.0000000000,   -0.0611843428,   -0.0000000000,   -0.1119970654,   -0.0000000000,   -0.0765491260,   -0.0000000000,   -0.1519558383,   -0.0000000000,   -0.0523420728,   -0.0000000000,    0.0159584784,   -0.0000000000,    0.0134379939,   -0.0000000000,   -0.2922620098,   -0.0000000000,    0.0181287098,   -0.0000000000,    0.3515459330,   -0.0000000000,    0.7763471630,   -0.0000000000,    0.1650796405,    0.0000000000,   -0.0200882033,    0.0000000000,    0.0130546896,    0.0000000000,   -0.0182604748,    0.0000000000,   -0.0168390715,    0.0000000000,   -0.0195059315,    0.0000000000,   -0.0203721240,    0.0000000000,    0.0555438829,    0.0000000000,   -0.0483563634,    0.0000000000,   -0.0805846219,    0.0000000000 ]
  - [    0.0015587977,   -0.0000000000,    0.0026999180,   -0.0000000000,    0.0050404097,   -0.0000000000,    0.0156922492,   -0.0000000000,    0.0271797736,   -0.0000000000,   -0.0586313232,   -0.0000000000,   -0.0012612562,   -0.0000000000,   -0.0021845601,   -0.0000000000,   -0.0205081317,   -0.0000000000,   -0.0569412372,   -0.0000000000,   -0.0986251152,   -0.0000000000,   -0.0782377079,   -0.0000000000,   -0.0196802480,   -0.0000000000,   -0.0021702314,   -0.0000000000,    0.0439987100,   -0.0000000000,    0.0079606485,   -0.0000000000,   -0.0181287098,   -0.0000000000,    0.0439987100,   -0.0000000000,    0.0953087741,   -0.0000000000,    0.1650796405,   -0.0000000000,    0.6216258410,   -0.0000000000,   -0.0825084141,    0.0000000000,    0.0182604748,    0.0000000000,   -0.1594647799,    0.0000000000,   -0.0117618511,    0.0000000000,   -0.0203721240,    0.0000000000,   -0.0125960824,    0.0000000000,    0.0570682401,    0.0000000000,   -0.0623241472,    0.0000000000,   -0.1594647799,    0.0000000000 ]
  - [   -0.0219663109,   -0.0000000000,    0.0080718836,   -0.0000000000,    0.0196085789,   -0.0000000000,    0.0209246823,   -0.0000000000,    0.0159138532,   -0.0000000000,   -0.0012953930,   -0.0000000000,   -0.0413474656,   -0.0000000000,    0.0611843428,   -0.0000000000,   -0.0441956600,   -0.0000000000,   -0.0152633695,   -0.0000000000,    0.0164047013,   -0.0000000000,   -0.0159401143,   -0.0000000000,   -0.0074156581,   -0.0000000000,   -0.0153674863,   -0.0000000000,    0.0254401740,   -0.0000000000,   -0.0000618423,   -0.0000000000,    0.0168390715,   -0.0000000000,   -0.0117618511,   -0.0000000000,   -0.0688267110,   -0.0000000000,   -0.0200882033,   -0.0000000000,   -0.0825084141,   -0.0000000000,    0.3704168906,   -0.0000000000,   -0.3515459330,    0.0000000000,    0.0953087741,    0.0000000000,    0.0276312362,    0.0000000000,    0.0134379939,    0.0000000000,    0.0079606485,    0.0000000000,   -0.2122887008,    0.0000000000,    0.1250798405,    0.0000000000,    0.0117195995,    0.0000000000 ]
  - [    0.0080718836,   -0.0000000000,   -0.0312869167,   -0.0000000000,   -0.0339630543,   -0.0000000000,    0.0159138532,   -0.0000000000,    0.0025489454,   -0.0000000000,    0.0022436899,   -0.0000000000,    0.0611843428,   -0.0000000000,   -0.1119970654,   -0.0000000000,    0.0765491260,   -0.0000000000,    0.0164047013,   -0.0000000000,   -0.0342058839,   -0.0000000000,    0.0276090820,   -0.0000000000,   -0.0555438829,   -0.0000000000,   -0.0483563634,   -0.0000000000,    0.0805846219,   -0.0000000000,    0.0168390715,   -0.0000000000,   -0.0195059315,   -0.0000000000,    0.0203721240,   -0.0000000000,    0.0200882033,   -0.0000000000,    0.0130546896,   -0.0000000000,    0.0182604748,   -0.0000000000,   -0.3515459330,   -0.0000000000,    0.7763471630,   -0.0000000000,   -0.1650796405,    0.0000000000,   -0.0134379939,    0.0000000000,   -0.2922620098,    0.0000000000,   -0.0181287098,    0.0000000000,    0.1519558383,    0.0000000000,   -0.0523420728,    0.0000000000,   -0.0159584784,    0.0000000000 ]
  - [    0.0156922492,   -0.0000000000,   -0.0271797736,   -0.0000000000,   -0.0586313232,   -0.0000000000,    0.0015587977,   -0.0000000000,   -0.0026999180,   -0.0000000000,    0.0050404097,   -0.0000000000,   -0.0569412372,   -0.0000000000,    0.0986251152,   -0.0000000000,   -0.0782377079,   -0.0000000000,   -0.0012612562,   -0.0000000000,    0.0021845601,   -0.0000000000,   -0.0205081317,   -0.0000000000,    0.0570682401,   -0.0000000000,    0.0623241472,   -0.0000000000,   -0.1594647799,   -0.0000000000,   -0.0117618511,   -0.0000000000,    0.0203721240,   -0.0000000000,   -0.0125960824,   -0.0000000000,   -0.0825084141,   -0.0000000000,   -0.0182604748,   -0.0000000000,   -0.1594647799,   -0.0000000000,    0.0953087741,   -0.0000000000,   -0.1650796405,   -0.0000000000,    0.6216258410,   -0.0000000000,    0.0079606485,    0.0000000000,    0.0181287098,    0.0000000000,    0.0439987100,    0.0000000000,   -0.0196802480,    0.0000000000,    0.0021702314,    0.0000000000,    0.0439987100,    0.0000000000 ]
  - [   -0.0219663109,   -0.0000000000,   -0.0080718836,   -0.0000000000,    0.0196085789,   -0.0000000000,    0.0209246823,   -0.0000000000,   -0.0159138532,   -0.0000000000,   -0.0012953930,   -0.0000000000,   -0.0413474656,   -0.0000000000,   -0.0611843428,   -0.0000000000,   -0.0441956600,   -0.0000000000,   -0.0152633695,   -0.0000000000,   -0.0164047013,   -0.0000000000,   -0.0159401143,   -0.0000000000,   -0.0074156581,   -0.0000000000,    0.0153674863,   -0.0000000000,    0.0254401740,   -0.0000000000,   -0.0688267110,   -0.0000000000,    0.0200882033,   -0.0000000000,   -0.0825084141,   -0.0000000000,   -0.0000618423,   -0.0000000000,   -0.0168390715,   -0.0000000000,   -0.0117618511,   -0.0000000000,    0.0276312362,   -0.0000000000,   -0.0134379939,   -0.0000000000,    0.0079606485,   -0.0000000000,    0.3704168906,   -0.0000000000,    0.3515459330,    0.0000000000,    0.0953087741,    0.0000000000,   -0.2122887008,    0.0000000000,   -0.1250798405,    0.0000000000,    0.0117195995,    0.0000000000 ]
  - [   -0.0080718836,   -0.0000000000,   -0.0312869167,   -0.0000000000,    0.0339630543,   -0.0000000000,   -0.0159138532,   -0.0000000000,    0.0025489454,   -0.0000000000,   -0.0022436899,   -0.0000000000,   -0.0611843428,   -0.0000000000,   -0.1119970654,   -0.0000000000,   -0.0765491260,   -0.0000000000,   -0.0164047013,   -0.0000000000,   -0.0342058839,   -0.0000000000,   -0.0276090820,   -0.0000000000,    0.0555438829,   -0.0000000000,   -0.0483563634,   -0.0000000000,   -0.0805846219,   -0.0000000000,   -0.0200882033,   -0.0000000000,    0.0130546896,   -0.0000000000,   -0.0182604748,   -0.0000000000,   -0.0168390715,   -0.0000000000,   -0.0195059315,   -0.0000000000,   -0.0203721240,   -0.0000000000,    0.0134379939,   -0.0000000000,   -0.2922620098,   -0.0000000000,    0.0181287098,   -0.0000000000,    0.3515459330,   -0.0000000000,    0.7763471630,   -0.0000000000,    0.1650796405,    0.0000000000,   -0.1519558383,    0.0000000000,   -0.0523420728,    0.0000000000,    0.0159584784,    0.0000000000 ]
  - [    0.0156922492,   -0.0000000000,    0.0271797736,   -0.0000000000,   -0.0586313232,   -0.0000000000,    0.0015587977,   -0.0000000000,    0.0026999180,   -0.0000000000,    0.0050404097,   -0.0000000000,   -0.0569412372,   -0.0000000000,   -0.0986251152,   -0.0000000000,   -0.0782377079,   -0.0000000000,   -0.0012612562,   -0.0000000000,   -0.0021845601,   -0.0000000000,   -0.0205081317,   -0.0000000000,    0.0570682401,   -0.0000000000,   -0.0623241472,   -0.0000000000,   -0.1594647799,   -0.0000000000,   -0.0825084141,   -0.0000000000,    0.0182604748,   -0.0000000000,   -0.1594647799,   -0.0000000000,   -0.0117618511,   -0.0000000000,   -0.0203721240,   -0.0000000000,   -0.0125960824,   -0.0000000000,    0.0079606485,   -0.0000000000,   -0.0181287098,   -0.0000000000,    0.0439987100,   -0.0000000000,    0.0953087741,   -0.0000000000,    0.1650796405,   -0.0000000000,    0.6216258410,   -0.0000000000,   -0.0196802480,    0.0000000000,   -0.0021702314,    0.0000000000,    0.0439987100,    0.0000000000 ]
  - [   -0.0359472196,   -0.0000000000,    0.0000000000,   -0.0000000000,   -0.0392171578,   -0.0000000000,   -0.0066389181,   -0.0000000000,    0.0000000000,   -0.0000000000,    0.0025907861,   -0.0000000000,   -0.1473218602,   -0.0000000000,    0.0000000000,   -0.0000000000,    0.0883913201,   -0.0000000000,   -0.0436771510,   -0.0000000000,    0.0000000000,   -0.0000000000,    0.0318802186,   -0.0000000000,   -0.0292279760,   -0.0000000000,    0.0000000000,   -0.0000000000,    0.0235237021,   -0.0000000000,   -0.0074156581,   -0.0000000000,   -0.0555438829,   -0.0000000000,    0.0570682401,   -0.0000000000,   -0.0074156581,   -0.0000000000,    0.0555438829,   -0.0000000000,    0.0570682401,   -0.0000000000,   -0.2122887008,   -0.0000000000,    0.1519558383,   -0.0000000000,   -0.0196802480,   -0.0000000000,   -0.2122887008,   -0.0000000000,   -0.1519558383,   -0.0000000000,   -0.0196802480,   -0.0000000000,    0.9793122942,   -0.0000000000,    0.0000000000,    0.0000000000,   -0.1906175482,    0.0000000000 ]