1.0 
  6.815  0.000  0.000  0.000  6.815  0.000  0.000  0.000  6.815
2.75671  0.00000  0.00000 0.00000  2.75691  0.00000 0.00000  0.00000  2.75683 
7.35595  0.00000  0.00000 0.00000  7.34672  0.00000 0.00000  0.00000  7.34734 
-2.15745  0.00000  0.00000 0.00000  -2.15713  0.00000 0.00000  0.00000  -5.80575 
-2.15745  0.00000  0.00000 0.00000  -5.80595  0.00000 0.00000  0.00000  -2.15710 
-5.80468  0.00000  0.00000 0.00000  -2.15713  0.00000 0.00000  0.00000  -2.15710 
