nqpoint: 4      
natom:   5      
atom-info:
- { name: Ba, mass:  137.32700 }
- { name: Ti, mass:   47.86700 }
- { name:  O, mass:   15.99940 }
- { name:  O, mass:   15.99940 }
- { name:  O, mass:   15.99940 }
real-basis:
- [    4.000000000000000,    0.000000000000000,    0.000000000000000 ]
- [    0.000000000000000,    4.000000000000000,    0.000000000000000 ]
- [    0.000000000000000,    0.000000000000000,    4.000000000000000 ]
position:
- [    0.000000000000000,    0.000000000000000,    0.000000000000000 ]
- [    0.500000000000000,    0.500000000000000,    0.500000000000000 ]
- [    0.500000000000000,    0.500000000000000,    0.000000000000000 ]
- [    0.500000000000000,    0.000000000000000,    0.500000000000000 ]
- [    0.000000000000000,    0.500000000000000,    0.500000000000000 ]
phonon:
- q-position: [    0.0000000,    0.0000000,    0.0000000 ]
  dynamical_matrix:
  - [    0.0456089000,    0.0000000000,    0.0000000000,    0.0000000000,    0.0000000000,    0.0000000000,   -0.0416957408,    0.0000000000,    0.0000000000,    0.0000000000,    0.0000000000,    0.0000000000,   -0.0172966443,    0.0000000000,    0.0000000000,    0.0000000000,    0.0000000000,    0.0000000000,   -0.0172966443,    0.0000000000,    0.0000000000,    0.0000000000,    0.0000000000,    0.0000000000,   -0.0269218248,    0.0000000000,    0.0000000000,    0.0000000000,    0.0000000000,    0.0000000000 ]
  - [    0.0000000000,    0.0000000000,    0.0456089000,    0.0000000000,    0.0000000000,    0.0000000000,    0.0000000000,    0.0000000000,   -0.0416957408,    0.0000000000,    0.0000000000,    0.0000000000,    0.0000000000,    0.0000000000,   -0.0172966443,    0.0000000000,    0.0000000000,    0.0000000000,    0.0000000000,    0.0000000000,   -0.0269218248,    0.0000000000,    0.0000000000,    0.0000000000,    0.0000000000,    0.0000000000,   -0.0172966443,    0.0000000000,    0.0000000000,    0.0000000000 ]
  - [    0.0000000000,    0.0000000000,    0.0000000000,    0.0000000000,    0.0456089000,    0.0000000000,    0.0000000000,    0.0000000000,    0.0000000000,    0.0000000000,   -0.0416957408,    0.0000000000,    0.0000000000,    0.0000000000,    0.0000000000,    0.0000000000,   -0.0269218248,    0.0000000000,    0.0000000000,    0.0000000000,    0.0000000000,    0.0000000000,   -0.0172966443,    0.0000000000,    0.0000000000,    0.0000000000,    0.0000000000,    0.0000000000,   -0.0172966443,    0.0000000000 ]
  - [   -0.0416957408,    0.0000000000,    0.0000000000,    0.0000000000,    0.0000000000,    0.0000000000,   -0.0164224689,    0.0000000000,    0.0000000000,    0.0000000000,    0.0000000000,    0.0000000000,   -0.0243523027,    0.0000000000,    0.0000000000,    0.0000000000,    0.0000000000,    0.0000000000,   -0.0243523027,    0.0000000000,    0.0000000000,    0.0000000000,    0.0000000000,    0.0000000000,    0.1991489111,    0.0000000000,    0.0000000000,    0.0000000000,    0.0000000000,    0.0000000000 ]
  - [    0.0000000000,    0.0000000000,   -0.0416957408,    0.0000000000,    0.0000000000,    0.0000000000,    0.0000000000,    0.0000000000,   -0.0164224689,    0.0000000000,    0.0000000000,    0.0000000000,    0.0000000000,    0.0000000000,   -0.0243523027,    0.0000000000,    0.0000000000,    0.0000000000,    0.0000000000,    0.0000000000,    0.1991489111,    0.0000000000,    0.0000000000,    0.0000000000,    0.0000000000,    0.0000000000,   -0.0243523027,    0.0000000000,    0.0000000000,    0.0000000000 ]
  - [    0.0000000000,    0.0000000000,    0.0000000000,    0.0000000000,   -0.0416957408,    0.0000000000,    0.0000000000,    0.0000000000,    0.0000000000,    0.0000000000,   -0.0164224689,    0.0000000000,    0.0000000000,    0.0000000000,    0.0000000000,    0.0000000000,    0.1991489111,    0.0000000000,    0.0000000000,    0.0000000000,    0.0000000000,    0.0000000000,   -0.0243523027,    0.0000000000,    0.0000000000,    0.0000000000,    0.0000000000,    0.0000000000,   -0.0243523027,    0.0000000000 ]
  - [   -0.0172966443,    0.0000000000,    0.0000000000,    0.0000000000,    0.0000000000,    0.0000000000,   -0.0243523027,    0.0000000000,    0.0000000000,    0.0000000000,    0.0000000000,    0.0000000000,    0.3380306661,    0.0000000000,    0.0000000000,    0.0000000000,    0.0000000000,    0.0000000000,    0.0366859757,    0.0000000000,    0.0000000000,    0.0000000000,    0.0000000000,    0.0000000000,   -0.2818343688,    0.0000000000,    0.0000000000,    0.0000000000,    0.0000000000,    0.0000000000 ]
  - [    0.0000000000,    0.0000000000,   -0.0172966443,    0.0000000000,    0.0000000000,    0.0000000000,    0.0000000000,    0.0000000000,   -0.0243523027,    0.0000000000,    0.0000000000,    0.0000000000,    0.0000000000,    0.0000000000,    0.3380306661,    0.0000000000,    0.0000000000,    0.0000000000,    0.0000000000,    0.0000000000,   -0.2818343688,    0.0000000000,   -0.0000000000,    0.0000000000,    0.0000000000,    0.0000000000,    0.0366859757,    0.0000000000,    0.0000000000,    0.0000000000 ]
  - [    0.0000000000,    0.0000000000,    0.0000000000,    0.0000000000,   -0.0269218248,    0.0000000000,    0.0000000000,    0.0000000000,    0.0000000000,    0.0000000000,    0.1991489111,    0.0000000000,    0.0000000000,    0.0000000000,    0.0000000000,    0.0000000000,    0.2981506306,    0.0000000000,    0.0000000000,    0.0000000000,    0.0000000000,    0.0000000000,   -0.2818343688,    0.0000000000,    0.0000000000,    0.0000000000,    0.0000000000,    0.0000000000,   -0.2818343688,    0.0000000000 ]
  - [   -0.0172966443,    0.0000000000,    0.0000000000,    0.0000000000,    0.0000000000,    0.0000000000,   -0.0243523027,    0.0000000000,    0.0000000000,    0.0000000000,    0.0000000000,    0.0000000000,    0.0366859757,    0.0000000000,    0.0000000000,    0.0000000000,    0.0000000000,    0.0000000000,    0.3380306661,    0.0000000000,    0.0000000000,    0.0000000000,    0.0000000000,    0.0000000000,   -0.2818343688,    0.0000000000,    0.0000000000,    0.0000000000,    0.0000000000,    0.0000000000 ]
  - [    0.0000000000,    0.0000000000,   -0.0269218248,    0.0000000000,    0.0000000000,    0.0000000000,    0.0000000000,    0.0000000000,    0.1991489111,    0.0000000000,    0.0000000000,    0.0000000000,    0.0000000000,    0.0000000000,   -0.2818343688,    0.0000000000,    0.0000000000,    0.0000000000,    0.0000000000,    0.0000000000,    0.2981506306,    0.0000000000,    0.0000000000,    0.0000000000,    0.0000000000,    0.0000000000,   -0.2818343688,    0.0000000000,    0.0000000000,    0.0000000000 ]
  - [    0.0000000000,    0.0000000000,    0.0000000000,    0.0000000000,   -0.0172966443,    0.0000000000,    0.0000000000,    0.0000000000,    0.0000000000,    0.0000000000,   -0.0243523027,    0.0000000000,    0.0000000000,    0.0000000000,   -0.0000000000,    0.0000000000,   -0.2818343688,    0.0000000000,    0.0000000000,    0.0000000000,    0.0000000000,    0.0000000000,    0.3380306661,    0.0000000000,    0.0000000000,    0.0000000000,    0.0000000000,    0.0000000000,    0.0366859757,    0.0000000000 ]
  - [   -0.0269218248,    0.0000000000,    0.0000000000,    0.0000000000,    0.0000000000,    0.0000000000,    0.1991489111,    0.0000000000,    0.0000000000,    0.0000000000,    0.0000000000,    0.0000000000,   -0.2818343688,    0.0000000000,    0.0000000000,    0.0000000000,    0.0000000000,    0.0000000000,   -0.2818343688,    0.0000000000,    0.0000000000,    0.0000000000,    0.0000000000,    0.0000000000,    0.2981506306,    0.0000000000,    0.0000000000,    0.0000000000,    0.0000000000,    0.0000000000 ]
  - [    0.0000000000,    0.0000000000,   -0.0172966443,    0.0000000000,    0.0000000000,    0.0000000000,    0.0000000000,    0.0000000000,   -0.0243523027,    0.0000000000,    0.0000000000,    0.0000000000,    0.0000000000,    0.0000000000,    0.0366859757,    0.0000000000,    0.0000000000,    0.0000000000,    0.0000000000,    0.0000000000,   -0.2818343688,    0.0000000000,    0.0000000000,    0.0000000000,    0.0000000000,    0.0000000000,    0.3380306661,    0.0000000000,    0.0000000000,    0.0000000000 ]
  - [    0.0000000000,    0.0000000000,    0.0000000000,    0.0000000000,   -0.0172966443,    0.0000000000,    0.0000000000,    0.0000000000,    0.0000000000,    0.0000000000,   -0.0243523027,    0.0000000000,    0.0000000000,    0.0000000000,    0.0000000000,    0.0000000000,   -0.2818343688,    0.0000000000,    0.0000000000,    0.0000000000,    0.0000000000,    0.0000000000,    0.0366859757,    0.0000000000,    0.0000000000,    0.0000000000,    0.0000000000,    0.0000000000,    0.3380306661,    0.0000000000 ]
  band:
  - # 1
    frequency: -220.4533826945
  - # 2
    frequency: -220.4533826945
  - # 3
    frequency: -220.4533826945
  - # 4
    frequency:   -0.1077105413
  - # 5
    frequency:   -0.1077105412
  - # 6
    frequency:   -0.1077105412
  - # 7
    frequency:  173.5102453021
  - # 8
    frequency:  173.5102453021
  - # 9
    frequency:  173.5102453021
  - # 10
    frequency:  286.2608347545
  - # 11
    frequency:  286.2608347545
  - # 12
    frequency:  286.2608347545
  - # 13
    frequency:  457.6076602818
  - # 14
    frequency:  457.6076602818
  - # 15
    frequency:  457.6076602818

- q-position: [    0.5000000,    0.0000000,    0.0000000 ]
  dynamical_matrix:
  - [    0.0946132600,    0.0000000000,    0.0000000000,    0.0000000000,    0.0000000000,    0.0000000000,    0.0000000000,    0.0000000000,    0.0000000000,    0.0000000000,    0.0000000000,    0.0000000000,   -0.0000000000,    0.0000000000,    0.0000000000,    0.0000000000,    0.0000000000,    0.0000000000,   -0.0000000000,    0.0000000000,    0.0000000000,    0.0000000000,    0.0000000000,    0.0000000000,   -0.1280582811,    0.0000000000,    0.0000000000,    0.0000000000,    0.0000000000,    0.0000000000 ]
  - [    0.0000000000,    0.0000000000,    0.0437629200,    0.0000000000,    0.0000000000,    0.0000000000,    0.0000000000,    0.0000000000,   -0.0000000000,    0.0000000000,    0.0000000000,    0.0000000000,    0.0000000000,    0.0000000000,   -0.0000000000,    0.0000000000,    0.0000000000,    0.0000000000,    0.0000000000,    0.0000000000,   -0.0000000000,    0.0000000000,    0.0000000000,    0.0000000000,    0.0000000000,    0.0000000000,   -0.0149908411,    0.0000000000,    0.0000000000,    0.0000000000 ]
  - [    0.0000000000,    0.0000000000,    0.0000000000,    0.0000000000,    0.0437629200,    0.0000000000,    0.0000000000,    0.0000000000,    0.0000000000,    0.0000000000,   -0.0000000000,    0.0000000000,    0.0000000000,    0.0000000000,    0.0000000000,    0.0000000000,   -0.0000000000,    0.0000000000,    0.0000000000,    0.0000000000,    0.0000000000,    0.0000000000,   -0.0000000000,    0.0000000000,    0.0000000000,    0.0000000000,    0.0000000000,    0.0000000000,   -0.0149908411,    0.0000000000 ]
  - [    0.0000000000,    0.0000000000,    0.0000000000,    0.0000000000,    0.0000000000,   -0.0000000000,    0.6051349915,    0.0000000000,    0.0000000000,    0.0000000000,    0.0000000000,    0.0000000000,   -0.2524831519,    0.0000000000,    0.0000000000,    0.0000000000,    0.0000000000,    0.0000000000,   -0.2524831519,    0.0000000000,    0.0000000000,    0.0000000000,    0.0000000000,    0.0000000000,   -0.0000000000,    0.0000000000,    0.0000000000,    0.0000000000,    0.0000000000,    0.0000000000 ]
  - [    0.0000000000,    0.0000000000,   -0.0000000000,    0.0000000000,    0.0000000000,    0.0000000000,    0.0000000000,    0.0000000000,   -0.0151219758,    0.0000000000,    0.0000000000,    0.0000000000,    0.0000000000,    0.0000000000,   -0.0228841559,    0.0000000000,    0.0000000000,    0.0000000000,    0.0000000000,    0.0000000000,    0.1953468436,    0.0000000000,    0.0000000000,    0.0000000000,    0.0000000000,    0.0000000000,   -0.0000000000,    0.0000000000,    0.0000000000,    0.0000000000 ]
  - [    0.0000000000,   -0.0000000000,    0.0000000000,    0.0000000000,   -0.0000000000,    0.0000000000,    0.0000000000,    0.0000000000,    0.0000000000,    0.0000000000,   -0.0151219758,    0.0000000000,    0.0000000000,    0.0000000000,    0.0000000000,    0.0000000000,    0.1953468436,    0.0000000000,    0.0000000000,    0.0000000000,    0.0000000000,    0.0000000000,   -0.0228841559,    0.0000000000,    0.0000000000,    0.0000000000,    0.0000000000,    0.0000000000,   -0.0000000000,    0.0000000000 ]
  - [   -0.0000000000,    0.0000000000,    0.0000000000,    0.0000000000,    0.0000000000,    0.0000000000,   -0.2524831519,    0.0000000000,    0.0000000000,    0.0000000000,    0.0000000000,    0.0000000000,    0.5186149581,    0.0000000000,    0.0000000000,    0.0000000000,    0.0000000000,    0.0000000000,    0.1255844294,    0.0000000000,    0.0000000000,    0.0000000000,    0.0000000000,    0.0000000000,    0.0000000000,    0.0000000000,    0.0000000000,    0.0000000000,    0.0000000000,   -0.0000000000 ]
  - [    0.0000000000,    0.0000000000,   -0.0000000000,    0.0000000000,    0.0000000000,    0.0000000000,    0.0000000000,    0.0000000000,   -0.0228841559,    0.0000000000,    0.0000000000,    0.0000000000,    0.0000000000,    0.0000000000,    0.3804256760,    0.0000000000,    0.0000000000,    0.0000000000,    0.0000000000,    0.0000000000,   -0.2839366076,    0.0000000000,    0.0000000000,    0.0000000000,    0.0000000000,    0.0000000000,    0.0000000000,    0.0000000000,    0.0000000000,    0.0000000000 ]
  - [    0.0000000000,    0.0000000000,    0.0000000000,    0.0000000000,   -0.0000000000,    0.0000000000,    0.0000000000,    0.0000000000,    0.0000000000,    0.0000000000,    0.1953468436,    0.0000000000,    0.0000000000,    0.0000000000,    0.0000000000,    0.0000000000,    0.3150810655,    0.0000000000,    0.0000000000,    0.0000000000,   -0.0000000000,    0.0000000000,   -0.2839366076,    0.0000000000,    0.0000000000,    0.0000000000,    0.0000000000,    0.0000000000,   -0.0000000000,    0.0000000000 ]
  - [   -0.0000000000,    0.0000000000,    0.0000000000,    0.0000000000,    0.0000000000,    0.0000000000,   -0.2524831519,    0.0000000000,    0.0000000000,    0.0000000000,    0.0000000000,    0.0000000000,    0.1255844294,    0.0000000000,    0.0000000000,    0.0000000000,    0.0000000000,    0.0000000000,    0.5186149581,    0.0000000000,    0.0000000000,    0.0000000000,    0.0000000000,    0.0000000000,    0.0000000000,    0.0000000000,    0.0000000000,    0.0000000000,    0.0000000000,    0.0000000000 ]
  - [    0.0000000000,    0.0000000000,   -0.0000000000,    0.0000000000,    0.0000000000,    0.0000000000,    0.0000000000,    0.0000000000,    0.1953468436,    0.0000000000,    0.0000000000,    0.0000000000,    0.0000000000,    0.0000000000,   -0.2839366076,    0.0000000000,   -0.0000000000,    0.0000000000,    0.0000000000,    0.0000000000,    0.3150810655,    0.0000000000,    0.0000000000,    0.0000000000,    0.0000000000,    0.0000000000,   -0.0000000000,    0.0000000000,    0.0000000000,    0.0000000000 ]
  - [    0.0000000000,    0.0000000000,    0.0000000000,    0.0000000000,   -0.0000000000,    0.0000000000,    0.0000000000,    0.0000000000,    0.0000000000,    0.0000000000,   -0.0228841559,    0.0000000000,    0.0000000000,    0.0000000000,    0.0000000000,    0.0000000000,   -0.2839366076,    0.0000000000,    0.0000000000,    0.0000000000,    0.0000000000,    0.0000000000,    0.3804256760,    0.0000000000,    0.0000000000,    0.0000000000,    0.0000000000,    0.0000000000,    0.0000000000,    0.0000000000 ]
  - [   -0.1280582811,    0.0000000000,    0.0000000000,    0.0000000000,    0.0000000000,    0.0000000000,   -0.0000000000,    0.0000000000,    0.0000000000,    0.0000000000,    0.0000000000,    0.0000000000,    0.0000000000,    0.0000000000,    0.0000000000,    0.0000000000,    0.0000000000,   -0.0000000000,    0.0000000000,    0.0000000000,    0.0000000000,    0.0000000000,    0.0000000000,    0.0000000000,    1.4607573684,    0.0000000000,    0.0000000000,    0.0000000000,    0.0000000000,    0.0000000000 ]
  - [    0.0000000000,    0.0000000000,   -0.0149908411,    0.0000000000,    0.0000000000,    0.0000000000,    0.0000000000,    0.0000000000,   -0.0000000000,    0.0000000000,    0.0000000000,    0.0000000000,    0.0000000000,    0.0000000000,    0.0000000000,    0.0000000000,    0.0000000000,    0.0000000000,    0.0000000000,    0.0000000000,   -0.0000000000,    0.0000000000,    0.0000000000,    0.0000000000,    0.0000000000,    0.0000000000,    0.4130215583,    0.0000000000,    0.0000000000,    0.0000000000 ]
  - [    0.0000000000,    0.0000000000,    0.0000000000,    0.0000000000,   -0.0149908411,    0.0000000000,    0.0000000000,    0.0000000000,    0.0000000000,    0.0000000000,   -0.0000000000,    0.0000000000,    0.0000000000,    0.0000000000,    0.0000000000,    0.0000000000,   -0.0000000000,    0.0000000000,    0.0000000000,    0.0000000000,    0.0000000000,    0.0000000000,    0.0000000000,    0.0000000000,    0.0000000000,    0.0000000000,    0.0000000000,    0.0000000000,    0.4130215583,    0.0000000000 ]
  band:
  - # 1
    frequency: -189.1235744512
  - # 2
    frequency: -189.1235744512
  - # 3
    frequency:  108.3296663664
  - # 4
    frequency:  108.3296663664
  - # 5
    frequency:  149.9744768500
  - # 6
    frequency:  198.7452963253
  - # 7
    frequency:  198.7452963253
  - # 8
    frequency:  269.4891620795
  - # 9
    frequency:  326.9213655072
  - # 10
    frequency:  335.3788930371
  - # 11
    frequency:  335.3788930371
  - # 12
    frequency:  425.7774375449
  - # 13
    frequency:  425.7774375449
  - # 14
    frequency:  516.8264628084
  - # 15
    frequency:  632.8212290925

- q-position: [    0.5000000,    0.5000000,    0.0000000 ]
  dynamical_matrix:
  - [    0.0734330400,    0.0000000000,    0.0000000000,    0.0000000000,    0.0000000000,    0.0000000000,    0.0000000000,    0.0000000000,    0.1179151288,    0.0000000000,    0.0000000000,    0.0000000000,    0.0000000000,    0.0000000000,   -0.0128282005,    0.0000000000,    0.0000000000,    0.0000000000,   -0.0000000000,    0.0000000000,    0.0000000000,    0.0000000000,    0.0000000000,    0.0000000000,   -0.0000000000,   -0.0000000000,    0.0000000000,    0.0000000000,    0.0000000000,    0.0000000000 ]
  - [    0.0000000000,    0.0000000000,    0.0734330400,    0.0000000000,    0.0000000000,    0.0000000000,    0.1179151288,    0.0000000000,    0.0000000000,    0.0000000000,    0.0000000000,    0.0000000000,   -0.0128282005,    0.0000000000,    0.0000000000,    0.0000000000,    0.0000000000,    0.0000000000,    0.0000000000,    0.0000000000,   -0.0000000000,    0.0000000000,    0.0000000000,    0.0000000000,    0.0000000000,    0.0000000000,   -0.0000000000,    0.0000000000,    0.0000000000,    0.0000000000 ]
  - [    0.0000000000,    0.0000000000,    0.0000000000,    0.0000000000,    0.0426255000,    0.0000000000,    0.0000000000,    0.0000000000,    0.0000000000,    0.0000000000,    0.0000000000,    0.0000000000,    0.0000000000,    0.0000000000,    0.0000000000,    0.0000000000,    0.0000000000,    0.0000000000,    0.0000000000,    0.0000000000,    0.0000000000,    0.0000000000,   -0.0000000000,    0.0000000000,    0.0000000000,    0.0000000000,    0.0000000000,    0.0000000000,   -0.0000000000,   -0.0000000000 ]
  - [    0.0000000000,    0.0000000000,    0.1179151288,    0.0000000000,    0.0000000000,    0.0000000000,    0.5443456664,    0.0000000000,    0.0000000000,    0.0000000000,    0.0000000000,    0.0000000000,   -0.1920587756,    0.0000000000,    0.0000000000,    0.0000000000,    0.0000000000,    0.0000000000,   -0.0000000000,    0.0000000000,    0.0000000000,    0.0000000000,    0.0000000000,    0.0000000000,    0.0000000000,    0.0000000000,    0.0000000000,    0.0000000000,    0.0000000000,    0.0000000000 ]
  - [    0.1179151288,    0.0000000000,    0.0000000000,    0.0000000000,    0.0000000000,    0.0000000000,    0.0000000000,    0.0000000000,    0.5443456664,    0.0000000000,    0.0000000000,    0.0000000000,    0.0000000000,    0.0000000000,   -0.1920587756,    0.0000000000,    0.0000000000,    0.0000000000,    0.0000000000,    0.0000000000,    0.0000000000,    0.0000000000,    0.0000000000,    0.0000000000,    0.0000000000,    0.0000000000,   -0.0000000000,    0.0000000000,    0.0000000000,    0.0000000000 ]
  - [    0.0000000000,    0.0000000000,    0.0000000000,    0.0000000000,    0.0000000000,    0.0000000000,    0.0000000000,    0.0000000000,    0.0000000000,    0.0000000000,   -0.0152779982,    0.0000000000,    0.0000000000,    0.0000000000,    0.0000000000,    0.0000000000,    0.1921840749,    0.0000000000,    0.0000000000,    0.0000000000,    0.0000000000,    0.0000000000,   -0.0000000000,    0.0000000000,    0.0000000000,    0.0000000000,    0.0000000000,    0.0000000000,   -0.0000000000,    0.0000000000 ]
  - [    0.0000000000,    0.0000000000,   -0.0128282005,    0.0000000000,    0.0000000000,    0.0000000000,   -0.1920587756,    0.0000000000,    0.0000000000,    0.0000000000,    0.0000000000,    0.0000000000,    0.4060909984,    0.0000000000,    0.0000000000,    0.0000000000,    0.0000000000,    0.0000000000,    0.0000000000,    0.0000000000,    0.0000000000,    0.0000000000,    0.0000000000,    0.0000000000,   -0.0000000000,    0.0000000000,    0.0000000000,    0.0000000000,    0.0000000000,    0.0000000000 ]
  - [   -0.0128282005,    0.0000000000,    0.0000000000,    0.0000000000,    0.0000000000,    0.0000000000,    0.0000000000,    0.0000000000,   -0.1920587756,    0.0000000000,    0.0000000000,    0.0000000000,    0.0000000000,    0.0000000000,    0.4060909984,    0.0000000000,    0.0000000000,    0.0000000000,    0.0000000000,    0.0000000000,   -0.0000000000,    0.0000000000,    0.0000000000,    0.0000000000,    0.0000000000,    0.0000000000,    0.0000000000,    0.0000000000,    0.0000000000,    0.0000000000 ]
  - [    0.0000000000,    0.0000000000,    0.0000000000,    0.0000000000,    0.0000000000,    0.0000000000,    0.0000000000,    0.0000000000,    0.0000000000,    0.0000000000,    0.1921840749,    0.0000000000,    0.0000000000,    0.0000000000,    0.0000000000,    0.0000000000,    0.3316420066,    0.0000000000,    0.0000000000,    0.0000000000,    0.0000000000,   -0.0000000000,   -0.0000000000,    0.0000000000,    0.0000000000,   -0.0000000000,    0.0000000000,    0.0000000000,   -0.0000000000,    0.0000000000 ]
  - [   -0.0000000000,    0.0000000000,    0.0000000000,    0.0000000000,    0.0000000000,    0.0000000000,   -0.0000000000,    0.0000000000,    0.0000000000,    0.0000000000,    0.0000000000,    0.0000000000,    0.0000000000,   -0.0000000000,    0.0000000000,    0.0000000000,    0.0000000000,    0.0000000000,    0.4752288111,    0.0000000000,    0.0000000000,    0.0000000000,    0.0000000000,    0.0000000000,    0.0000000000,    0.0000000000,    0.3065916972,    0.0000000000,    0.0000000000,    0.0000000000 ]
  - [    0.0000000000,    0.0000000000,   -0.0000000000,    0.0000000000,    0.0000000000,    0.0000000000,    0.0000000000,    0.0000000000,    0.0000000000,    0.0000000000,    0.0000000000,    0.0000000000,    0.0000000000,    0.0000000000,   -0.0000000000,    0.0000000000,    0.0000000000,    0.0000000000,    0.0000000000,    0.0000000000,    1.1163459330,    0.0000000000,    0.0000000000,    0.0000000000,    0.6307280523,    0.0000000000,    0.0000000000,    0.0000000000,    0.0000000000,    0.0000000000 ]
  - [    0.0000000000,    0.0000000000,    0.0000000000,    0.0000000000,   -0.0000000000,    0.0000000000,    0.0000000000,    0.0000000000,    0.0000000000,    0.0000000000,   -0.0000000000,   -0.0000000000,    0.0000000000,    0.0000000000,    0.0000000000,   -0.0000000000,   -0.0000000000,   -0.0000000000,    0.0000000000,    0.0000000000,    0.0000000000,    0.0000000000,    0.4503128567,    0.0000000000,    0.0000000000,    0.0000000000,    0.0000000000,    0.0000000000,    0.0000000000,    0.0000000000 ]
  - [   -0.0000000000,    0.0000000000,    0.0000000000,    0.0000000000,    0.0000000000,    0.0000000000,    0.0000000000,    0.0000000000,    0.0000000000,    0.0000000000,    0.0000000000,    0.0000000000,   -0.0000000000,    0.0000000000,    0.0000000000,    0.0000000000,    0.0000000000,    0.0000000000,    0.0000000000,    0.0000000000,    0.6307280523,    0.0000000000,    0.0000000000,    0.0000000000,    1.1163459330,    0.0000000000,    0.0000000000,    0.0000000000,    0.0000000000,    0.0000000000 ]
  - [    0.0000000000,    0.0000000000,   -0.0000000000,    0.0000000000,    0.0000000000,    0.0000000000,    0.0000000000,    0.0000000000,   -0.0000000000,    0.0000000000,    0.0000000000,    0.0000000000,    0.0000000000,    0.0000000000,    0.0000000000,    0.0000000000,    0.0000000000,    0.0000000000,    0.3065916972,    0.0000000000,    0.0000000000,    0.0000000000,    0.0000000000,    0.0000000000,    0.0000000000,    0.0000000000,    0.4752288111,    0.0000000000,    0.0000000000,    0.0000000000 ]
  - [    0.0000000000,    0.0000000000,    0.0000000000,    0.0000000000,   -0.0000000000,    0.0000000000,    0.0000000000,    0.0000000000,    0.0000000000,    0.0000000000,   -0.0000000000,    0.0000000000,    0.0000000000,   -0.0000000000,    0.0000000000,    0.0000000000,   -0.0000000000,    0.0000000000,    0.0000000000,    0.0000000000,    0.0000000000,    0.0000000000,    0.0000000000,    0.0000000000,    0.0000000000,    0.0000000000,    0.0000000000,    0.0000000000,    0.4503128567,    0.0000000000 ]
  band:
  - # 1
    frequency: -165.4848418478
  - # 2
    frequency:  107.0750095778
  - # 3
    frequency:  107.0750095778
  - # 4
    frequency:  107.6626101751
  - # 5
    frequency:  214.1444099260
  - # 6
    frequency:  278.3182851545
  - # 7
    frequency:  278.3182851545
  - # 8
    frequency:  336.7710374015
  - # 9
    frequency:  349.9349617951
  - # 10
    frequency:  349.9349617951
  - # 11
    frequency:  363.3937855712
  - # 12
    frequency:  435.3123188997
  - # 13
    frequency:  435.3123188997
  - # 14
    frequency:  461.0878630560
  - # 15
    frequency:  689.2643394766

- q-position: [    0.5000000,    0.5000000,    0.5000000 ]
  dynamical_matrix:
  - [    0.0642226600,    0.0000000000,    0.0000000000,    0.0000000000,    0.0000000000,    0.0000000000,   -0.0000000000,    0.0000000000,    0.0000000000,    0.0000000000,    0.0000000000,    0.0000000000,    0.0000000000,    0.0000000000,    0.0061560754,    0.0000000000,    0.0000000000,    0.0000000000,    0.0000000000,    0.0000000000,    0.0000000000,    0.0000000000,    0.0061560754,    0.0000000000,   -0.0000000000,   -0.0000000000,    0.0000000000,    0.0000000000,    0.0000000000,    0.0000000000 ]
  - [    0.0000000000,    0.0000000000,    0.0642226600,    0.0000000000,    0.0000000000,    0.0000000000,    0.0000000000,    0.0000000000,   -0.0000000000,    0.0000000000,    0.0000000000,    0.0000000000,    0.0061560754,    0.0000000000,    0.0000000000,    0.0000000000,    0.0000000000,    0.0000000000,    0.0000000000,    0.0000000000,    0.0000000000,   -0.0000000000,    0.0000000000,    0.0000000000,    0.0000000000,    0.0000000000,    0.0000000000,    0.0000000000,    0.0061560754,    0.0000000000 ]
  - [    0.0000000000,    0.0000000000,    0.0000000000,    0.0000000000,    0.0642226600,    0.0000000000,    0.0000000000,    0.0000000000,    0.0000000000,    0.0000000000,   -0.0000000000,    0.0000000000,    0.0000000000,    0.0000000000,    0.0000000000,    0.0000000000,    0.0000000000,    0.0000000000,    0.0061560754,    0.0000000000,    0.0000000000,    0.0000000000,    0.0000000000,    0.0000000000,    0.0000000000,    0.0000000000,    0.0061560754,    0.0000000000,    0.0000000000,    0.0000000000 ]
  - [   -0.0000000000,    0.0000000000,    0.0000000000,    0.0000000000,    0.0000000000,    0.0000000000,    0.5556053036,    0.0000000000,    0.0000000000,    0.0000000000,    0.0000000000,    0.0000000000,   -0.0000000000,   -0.0000000000,    0.0000000000,    0.0000000000,    0.0000000000,    0.0000000000,   -0.0000000000,    0.0000000000,    0.0000000000,    0.0000000000,    0.0000000000,    0.0000000000,    0.0000000000,    0.0000000000,    0.0000000000,    0.0000000000,    0.0000000000,    0.0000000000 ]
  - [    0.0000000000,    0.0000000000,   -0.0000000000,    0.0000000000,    0.0000000000,    0.0000000000,    0.0000000000,    0.0000000000,    0.5556053036,    0.0000000000,    0.0000000000,    0.0000000000,    0.0000000000,    0.0000000000,   -0.0000000000,    0.0000000000,    0.0000000000,    0.0000000000,    0.0000000000,    0.0000000000,    0.0000000000,    0.0000000000,    0.0000000000,    0.0000000000,    0.0000000000,    0.0000000000,   -0.0000000000,    0.0000000000,    0.0000000000,    0.0000000000 ]
  - [    0.0000000000,    0.0000000000,    0.0000000000,    0.0000000000,   -0.0000000000,    0.0000000000,    0.0000000000,    0.0000000000,    0.0000000000,    0.0000000000,    0.5556053036,    0.0000000000,    0.0000000000,    0.0000000000,    0.0000000000,    0.0000000000,    0.0000000000,    0.0000000000,    0.0000000000,    0.0000000000,    0.0000000000,    0.0000000000,   -0.0000000000,    0.0000000000,    0.0000000000,    0.0000000000,    0.0000000000,    0.0000000000,   -0.0000000000,    0.0000000000 ]
  - [    0.0000000000,    0.0000000000,    0.0061560754,    0.0000000000,    0.0000000000,    0.0000000000,   -0.0000000000,    0.0000000000,    0.0000000000,    0.0000000000,    0.0000000000,    0.0000000000,    0.3892980887,    0.0000000000,    0.0000000000,    0.0000000000,    0.0000000000,    0.0000000000,    0.0000000000,    0.0000000000,    0.0000000000,    0.0000000000,    0.0000000000,    0.0000000000,    0.0000000000,    0.0000000000,    0.0000000000,    0.0000000000,    0.2585706164,    0.0000000000 ]